 Entering Gaussian System, Link 0=g16
 Input=3a_random_forward.gjf
 Output=3a_random_forward.log
 Initial command:
 /home/p20180441/g16/l1.exe "/home/p20180441/g16/scratch/Gau-147463.inp" -scrdir="/home/p20180441/g16/scratch/"
 Entering Link 1 = /home/p20180441/g16/l1.exe PID=    147464.
  
 Copyright (c) 1988,1990,1992,1993,1995,1998,2003,2009,2016,
            Gaussian, Inc.  All Rights Reserved.
  
 This is part of the Gaussian(R) 16 program.  It is based on
 the Gaussian(R) 09 system (copyright 2009, Gaussian, Inc.),
 the Gaussian(R) 03 system (copyright 2003, Gaussian, Inc.),
 the Gaussian(R) 98 system (copyright 1998, Gaussian, Inc.),
 the Gaussian(R) 94 system (copyright 1995, Gaussian, Inc.),
 the Gaussian 92(TM) system (copyright 1992, Gaussian, Inc.),
 the Gaussian 90(TM) system (copyright 1990, Gaussian, Inc.),
 the Gaussian 88(TM) system (copyright 1988, Gaussian, Inc.),
 the Gaussian 86(TM) system (copyright 1986, Carnegie Mellon
 University), and the Gaussian 82(TM) system (copyright 1983,
 Carnegie Mellon University). Gaussian is a federally registered
 trademark of Gaussian, Inc.
  
 This software contains proprietary and confidential information,
 including trade secrets, belonging to Gaussian, Inc.
  
 This software is provided under written license and may be
 used, copied, transmitted, or stored only in accord with that
 written license.
  
 The following legend is applicable only to US Government
 contracts under FAR:
  
                    RESTRICTED RIGHTS LEGEND
  
 Use, reproduction and disclosure by the US Government is
 subject to restrictions as set forth in subparagraphs (a)
 and (c) of the Commercial Computer Software - Restricted
 Rights clause in FAR 52.227-19.
  
 Gaussian, Inc.
 340 Quinnipiac St., Bldg. 40, Wallingford CT 06492
  
  
 ---------------------------------------------------------------
 Warning -- This program may not be used in any manner that
 competes with the business of Gaussian, Inc. or will provide
 assistance to any competitor of Gaussian, Inc.  The licensee
 of this program is prohibited from giving any competitor of
 Gaussian, Inc. access to this program.  By using this program,
 the user acknowledges that Gaussian, Inc. is engaged in the
 business of creating and licensing software in the field of
 computational chemistry and represents and warrants to the
 licensee that it is not a competitor of Gaussian, Inc. and that
 it will not use this program in any manner prohibited above.
 ---------------------------------------------------------------
  

 Cite this work as:
 Gaussian 16, Revision A.03,
 M. J. Frisch, G. W. Trucks, H. B. Schlegel, G. E. Scuseria, 
 M. A. Robb, J. R. Cheeseman, G. Scalmani, V. Barone, 
 G. A. Petersson, H. Nakatsuji, X. Li, M. Caricato, A. V. Marenich, 
 J. Bloino, B. G. Janesko, R. Gomperts, B. Mennucci, H. P. Hratchian, 
 J. V. Ortiz, A. F. Izmaylov, J. L. Sonnenberg, D. Williams-Young, 
 F. Ding, F. Lipparini, F. Egidi, J. Goings, B. Peng, A. Petrone, 
 T. Henderson, D. Ranasinghe, V. G. Zakrzewski, J. Gao, N. Rega, 
 G. Zheng, W. Liang, M. Hada, M. Ehara, K. Toyota, R. Fukuda, 
 J. Hasegawa, M. Ishida, T. Nakajima, Y. Honda, O. Kitao, H. Nakai, 
 T. Vreven, K. Throssell, J. A. Montgomery, Jr., J. E. Peralta, 
 F. Ogliaro, M. J. Bearpark, J. J. Heyd, E. N. Brothers, K. N. Kudin, 
 V. N. Staroverov, T. A. Keith, R. Kobayashi, J. Normand, 
 K. Raghavachari, A. P. Rendell, J. C. Burant, S. S. Iyengar, 
 J. Tomasi, M. Cossi, J. M. Millam, M. Klene, C. Adamo, R. Cammi, 
 J. W. Ochterski, R. L. Martin, K. Morokuma, O. Farkas, 
 J. B. Foresman, and D. J. Fox, Gaussian, Inc., Wallingford CT, 2016.
 
 ******************************************
 Gaussian 16:  ES64L-G16RevA.03 25-Dec-2016
                20-Aug-2022 
 ******************************************
 %chk=/home/p20180441/work/revisit/B3PW91/asm/random/asm_lower_basis_set/3a/3a_ra
 ndom_forward.chk
 %Nproc=40
 Will use up to   40 processors via shared memory.
 %mem=12GB
 -----------------------------------------------------------------
 #P B3PW91/6-31+G(d,p) IRC(CalcFC,forward,MaxPoints=40,StepSize=4)
 -----------------------------------------------------------------
 1/10=4,18=10,22=1,26=3,38=1,39=4,42=40,44=3,172=1/1,23;
 2/12=2,17=6,18=5,29=1,40=1/2;
 3/5=1,6=6,7=111,11=2,25=1,30=1,71=2,74=-6,140=1/1,2,3;
 4//1;
 5/5=2,38=5/2;
 8/6=4,10=90,11=11/1;
 11/6=1,8=1,9=11,15=111,16=1/1,2,10;
 10/6=1,13=1/2;
 6/7=2,8=2,9=2,10=2,28=1/1;
 7/10=1,18=20,25=1/1,2,3,16;
 1/10=4,18=10,22=1,26=3,39=4,42=40,44=3/23(2);
 2/29=1/2;
 99/5=20/99;
 2/29=1/2;
 3/5=1,6=6,7=111,11=2,25=1,30=1,71=2,74=-6,140=1/1,2,3;
 4/5=5,16=3,69=1/1;
 5/5=2,38=5/2;
 8/6=4,10=90,11=11/1;
 11/6=1,8=1,9=11,15=111,16=1/1,2,10;
 10/6=1,13=1/2;
 7/10=1,18=20,25=1/1,2,3,16;
 1/18=10,22=1,26=3,39=4,42=40,44=3/23(-8);
 2/29=1/2;
 6/7=2,8=2,9=2,10=2,19=2,28=1/1;
 99/5=20,9=1/99;
 Leave Link    1 at Sat Aug 20 08:20:43 2022, MaxMem=  1610612736 cpu:               6.3 elap:               0.4
 (Enter /home/p20180441/g16/l101.exe)
 -------
 forward
 -------
 Symbolic Z-matrix:
 Charge =  0 Multiplicity = 1
 6                     3.40934   0.21852  -0.60627 
 6                     2.00851   0.12543  -0.55297 
 6                     4.07835   1.3641   -0.18807 
 1                     5.16367   1.40174  -0.23852 
 6                     1.2869    1.24595  -0.08142 
 6                     3.36085   2.46662   0.2819 
 1                     3.87506   3.36813   0.6021 
 6                     1.97098   2.39467   0.33421 
 1                     1.40335   3.25226   0.69243 
 6                    -0.21403   1.22584  -0.04712 
 1                    -0.6097    2.21617   0.19401 
 1                    -0.60128   0.8923   -1.01085 
 7                    -0.76257   0.26444   0.97814 
 6                    -0.36598   0.65215   2.36043 
 1                    -0.93641   1.52749   2.67837 
 1                    -0.5413   -0.20437   3.0133 
 1                     0.69838   0.8864    2.36046 
 34                    1.13808  -1.40979  -1.22587 
 6                    -2.62615  -1.01898  -0.20559 
 6                    -2.92457  -0.42228  -1.58343 
 6                    -3.92774   0.72765  -1.48831 
 6                    -3.4398    1.81028  -0.52367 
 6                    -3.13689   1.24114   0.87005 
 6                    -2.25766  -0.01955   0.9032 
 1                    -1.85338  -1.79045  -0.27621 
 1                    -3.53484  -1.52342   0.15081 
 1                    -3.31971  -1.21698  -2.22687 
 1                    -4.10829   1.16136  -2.47863 
 1                    -4.89505   0.33864  -1.13712 
 1                    -4.19754   2.5962   -0.41957 
 1                    -2.55482   2.29804  -0.94798 
 1                    -2.72702   2.01958   1.52515 
 1                    -4.09041   0.94923   1.32963 
 1                    -2.43116  -0.52996   1.85566 
 1                    -1.99858  -0.08745  -2.06583 
 1                    -0.28778  -0.66722   0.814 
 8                     0.10248  -2.51841   2.71666 
 8                     0.589    -2.06641   1.13108 
 1                     0.35903  -2.9124    0.7198 
 1                     0.99807  -2.65018   3.05831 
 1                     3.96852  -0.63402  -0.97948 
 
 ITRead=  0  0  0  0  0  0  0  0  0  0  0  0  0  0  0  0  0  0  0  0
 ITRead=  0  0  0  0  0  0  0  0  0  0  0  0  0  0  0  0  0  0  0  0
 ITRead=  0
 MicOpt= -1 -1 -1 -1 -1 -1 -1 -1 -1 -1 -1 -1 -1 -1 -1 -1 -1 -1 -1 -1
 MicOpt= -1 -1 -1 -1 -1 -1 -1 -1 -1 -1 -1 -1 -1 -1 -1 -1 -1 -1 -1 -1
 MicOpt= -1
 NAtoms=     41 NQM=       41 NQMF=       0 NMMI=      0 NMMIF=      0
                NMic=       0 NMicF=      0.
                    Isotopes and Nuclear Properties:
 (Nuclear quadrupole moments (NQMom) in fm**2, nuclear magnetic moments (NMagM)
  in nuclear magnetons)

  Atom         1           2           3           4           5           6           7           8           9          10
 IAtWgt=          12          12          12           1          12          12           1          12           1          12
 AtmWgt=  12.0000000  12.0000000  12.0000000   1.0078250  12.0000000  12.0000000   1.0078250  12.0000000   1.0078250  12.0000000
 NucSpn=           0           0           0           1           0           0           1           0           1           0
 AtZEff=  -0.0000000  -0.0000000  -0.0000000  -0.0000000  -0.0000000  -0.0000000  -0.0000000  -0.0000000  -0.0000000  -0.0000000
 NQMom=    0.0000000   0.0000000   0.0000000   0.0000000   0.0000000   0.0000000   0.0000000   0.0000000   0.0000000   0.0000000
 NMagM=    0.0000000   0.0000000   0.0000000   2.7928460   0.0000000   0.0000000   2.7928460   0.0000000   2.7928460   0.0000000
 AtZNuc=   6.0000000   6.0000000   6.0000000   1.0000000   6.0000000   6.0000000   1.0000000   6.0000000   1.0000000   6.0000000

  Atom        11          12          13          14          15          16          17          18          19          20
 IAtWgt=           1           1          14          12           1           1           1          80          12          12
 AtmWgt=   1.0078250   1.0078250  14.0030740  12.0000000   1.0078250   1.0078250   1.0078250  79.9165205  12.0000000  12.0000000
 NucSpn=           1           1           2           0           1           1           1           0           0           0
 AtZEff=  -0.0000000  -0.0000000  -0.0000000  -0.0000000  -0.0000000  -0.0000000  -0.0000000  -0.0000000  -0.0000000  -0.0000000
 NQMom=    0.0000000   0.0000000   2.0440000   0.0000000   0.0000000   0.0000000   0.0000000   0.0000000   0.0000000   0.0000000
 NMagM=    2.7928460   2.7928460   0.4037610   0.0000000   2.7928460   2.7928460   2.7928460   0.0000000   0.0000000   0.0000000
 AtZNuc=   1.0000000   1.0000000   7.0000000   6.0000000   1.0000000   1.0000000   1.0000000  34.0000000   6.0000000   6.0000000

  Atom        21          22          23          24          25          26          27          28          29          30
 IAtWgt=          12          12          12          12           1           1           1           1           1           1
 AtmWgt=  12.0000000  12.0000000  12.0000000  12.0000000   1.0078250   1.0078250   1.0078250   1.0078250   1.0078250   1.0078250
 NucSpn=           0           0           0           0           1           1           1           1           1           1
 AtZEff=  -0.0000000  -0.0000000  -0.0000000  -0.0000000  -0.0000000  -0.0000000  -0.0000000  -0.0000000  -0.0000000  -0.0000000
 NQMom=    0.0000000   0.0000000   0.0000000   0.0000000   0.0000000   0.0000000   0.0000000   0.0000000   0.0000000   0.0000000
 NMagM=    0.0000000   0.0000000   0.0000000   0.0000000   2.7928460   2.7928460   2.7928460   2.7928460   2.7928460   2.7928460
 AtZNuc=   6.0000000   6.0000000   6.0000000   6.0000000   1.0000000   1.0000000   1.0000000   1.0000000   1.0000000   1.0000000

  Atom        31          32          33          34          35          36          37          38          39          40
 IAtWgt=           1           1           1           1           1           1          16          16           1           1
 AtmWgt=   1.0078250   1.0078250   1.0078250   1.0078250   1.0078250   1.0078250  15.9949146  15.9949146   1.0078250   1.0078250
 NucSpn=           1           1           1           1           1           1           0           0           1           1
 AtZEff=  -0.0000000  -0.0000000  -0.0000000  -0.0000000  -0.0000000  -0.0000000  -0.0000000  -0.0000000  -0.0000000  -0.0000000
 NQMom=    0.0000000   0.0000000   0.0000000   0.0000000   0.0000000   0.0000000   0.0000000   0.0000000   0.0000000   0.0000000
 NMagM=    2.7928460   2.7928460   2.7928460   2.7928460   2.7928460   2.7928460   0.0000000   0.0000000   2.7928460   2.7928460
 AtZNuc=   1.0000000   1.0000000   1.0000000   1.0000000   1.0000000   1.0000000   8.0000000   8.0000000   1.0000000   1.0000000

  Atom        41
 IAtWgt=           1
 AtmWgt=   1.0078250
 NucSpn=           1
 AtZEff=  -0.0000000
 NQMom=    0.0000000
 NMagM=    2.7928460
 AtZNuc=   1.0000000
 Leave Link  101 at Sat Aug 20 08:20:44 2022, MaxMem=  1610612736 cpu:              11.5 elap:               0.8
 (Enter /home/p20180441/g16/l123.exe)
 IRC-IRC-IRC-IRC-IRC-IRC-IRC-IRC-IRC-IRC-IRC-IRC-IRC-IRC-IRC-IRC-IRC-IRC
 ------------------------------------------------------------------------
 INPUT DATA FOR L123
 ------------------------------------------------------------------------
 GENERAL PARAMETERS:
 Rxn path following direction = Forward
 Maximum points per path      =  40
 Step size                    =   0.040 bohr
 Integration scheme           = HPC                                 
    Redo corrector integration= Yes                                 
    DWI Weight Power          =  2
    DWI will use Hessian update vectors when possible.
    Max correction cycles     =  20
 Initial Hessian              = CalcFC
 Hessian evaluation           = All updating
 Hessian updating method      = Bofill                              
 ------------------------------------------------------------------------
 IRC-IRC-IRC-IRC-IRC-IRC-IRC-IRC-IRC-IRC-IRC-IRC-IRC-IRC-IRC-IRC-IRC-IRC
 Leave Link  123 at Sat Aug 20 08:20:44 2022, MaxMem=  1610612736 cpu:               2.0 elap:               0.3
 (Enter /home/p20180441/g16/l202.exe)
                          Input orientation:                          
 ---------------------------------------------------------------------
 Center     Atomic      Atomic             Coordinates (Angstroms)
 Number     Number       Type             X           Y           Z
 ---------------------------------------------------------------------
      1          6           0        3.409337    0.218524   -0.606273
      2          6           0        2.008513    0.125428   -0.552967
      3          6           0        4.078348    1.364101   -0.188071
      4          1           0        5.163671    1.401741   -0.238523
      5          6           0        1.286896    1.245954   -0.081421
      6          6           0        3.360846    2.466623    0.281897
      7          1           0        3.875056    3.368125    0.602096
      8          6           0        1.970982    2.394668    0.334210
      9          1           0        1.403347    3.252262    0.692425
     10          6           0       -0.214026    1.225841   -0.047117
     11          1           0       -0.609702    2.216170    0.194012
     12          1           0       -0.601276    0.892296   -1.010850
     13          7           0       -0.762566    0.264442    0.978144
     14          6           0       -0.365976    0.652151    2.360427
     15          1           0       -0.936410    1.527486    2.678368
     16          1           0       -0.541301   -0.204371    3.013304
     17          1           0        0.698378    0.886403    2.360457
     18         34           0        1.138076   -1.409792   -1.225867
     19          6           0       -2.626147   -1.018977   -0.205590
     20          6           0       -2.924574   -0.422282   -1.583426
     21          6           0       -3.927742    0.727650   -1.488307
     22          6           0       -3.439797    1.810276   -0.523666
     23          6           0       -3.136891    1.241139    0.870046
     24          6           0       -2.257655   -0.019545    0.903197
     25          1           0       -1.853381   -1.790452   -0.276209
     26          1           0       -3.534841   -1.523424    0.150812
     27          1           0       -3.319711   -1.216980   -2.226870
     28          1           0       -4.108289    1.161355   -2.478631
     29          1           0       -4.895048    0.338638   -1.137120
     30          1           0       -4.197541    2.596199   -0.419566
     31          1           0       -2.554820    2.298044   -0.947983
     32          1           0       -2.727024    2.019580    1.525150
     33          1           0       -4.090408    0.949231    1.329625
     34          1           0       -2.431155   -0.529958    1.855655
     35          1           0       -1.998579   -0.087454   -2.065834
     36          1           0       -0.287776   -0.667221    0.813999
     37          8           0        0.102483   -2.518411    2.716659
     38          8           0        0.589004   -2.066409    1.131078
     39          1           0        0.359032   -2.912397    0.719802
     40          1           0        0.998074   -2.650179    3.058307
     41          1           0        3.968518   -0.634020   -0.979479
 ---------------------------------------------------------------------
                    Distance matrix (angstroms):
                    1          2          3          4          5
     1  C    0.000000
     2  C    1.404926   0.000000
     3  C    1.390976   2.439606   0.000000
     4  H    2.147773   3.418022   1.087147   0.000000
     5  C    2.415748   1.413742   2.795986   3.883083   0.000000
     6  C    2.417674   2.829664   1.396866   2.157542   2.433783
     7  H    3.405442   3.915768   2.163748   2.496765   3.416047
     8  C    2.772900   2.436789   2.403297   3.392225   1.400095
     9  H    3.861888   3.419696   3.390583   4.293149   2.153525
    10  C    3.802118   2.531101   4.296913   5.383976   1.501449
    11  H    4.558917   3.432817   4.780149   5.846556   2.148084
    12  H    4.086890   2.758395   4.774772   5.838719   2.134035
    13  N    4.462876   3.168991   5.099388   6.155811   2.507257
    14  C    4.821030   3.795194   5.172401   6.155763   3.007858
    15  H    5.602478   4.591281   5.778492   6.762770   3.555107
    16  H    5.374730   4.396431   5.835243   6.760228   3.875960
    17  H    4.073923   3.283836   4.259975   5.192216   2.537400
    18  Se   2.862505   1.888744   4.173332   5.008491   2.895668
    19  C    6.174060   4.786482   7.115449   8.157342   4.522968
    20  C    6.440799   5.069239   7.360645   8.399734   4.772369
    21  C    7.407423   6.039591   8.135918   9.201638   5.425902
    22  C    7.032150   5.702951   7.538846   8.617881   4.780760
    23  C    6.788104   5.453894   7.293449   8.375801   4.524953
    24  C    5.869410   4.510169   6.576494   7.641967   3.890347
    25  H    5.642794   4.319886   6.718957   7.709120   4.372533
    26  H    7.199248   5.826044   8.149435   9.185439   5.565297
    27  H    7.068741   5.744039   8.096293   9.098296   5.647108
    28  H    7.804445   6.495890   8.503458   9.541756   5.904388
    29  H    8.322201   6.931511   9.081525  10.154580   6.336731
    30  H    7.972000   6.681138   8.370304   9.438845   5.658317
    31  H    6.325531   5.069547   6.741560   7.802679   4.076347
    32  H    6.741045   5.507422   7.048253   8.108966   4.392166
    33  H    7.779962   6.435809   8.318900   9.396905   5.567270
    34  H    6.382214   5.093294   7.080812   8.111623   4.553024
    35  H    5.609768   4.288458   6.523960   7.540198   4.063277
    36  H    4.058369   2.787442   4.918684   5.925089   2.634693
    37  O    5.428441   4.616632   6.270475   7.050980   4.837616
    38  O    4.024125   3.107276   5.067946   5.901817   3.595686
    39  H    4.567877   3.683627   5.739859   6.527996   4.335294
    40  H    5.241449   4.665435   6.011780   6.681268   5.012102
    41  H    1.085724   2.144829   2.151947   2.474213   3.395866
                    6          7          8          9         10
     6  C    0.000000
     7  H    1.086115   0.000000
     8  C    1.392708   2.155198   0.000000
     9  H    2.148852   2.476071   1.089034   0.000000
    10  C    3.798355   4.661700   2.507155   2.696145   0.000000
    11  H    3.979410   4.648289   2.590646   2.318247   1.093368
    12  H    4.455122   5.363662   3.268458   3.533992   1.090869
    13  N    4.726192   5.593013   3.524883   3.701335   1.508756
    14  C    4.637003   5.334285   3.550112   3.559960   2.479612
    15  H    5.009138   5.554193   3.834059   3.520410   2.835683
    16  H    5.460911   6.170969   4.499346   4.595264   3.393935
    17  H    3.729108   4.397961   2.828438   2.979362   2.596943
    18  Se   4.716000   5.801810   4.195413   5.048263   3.188133
    19  C    6.944864   7.884457   5.751343   5.940264   3.298886
    20  C    7.164615   8.085707   5.964814   6.116590   3.524716
    21  C    7.699426   8.498562   6.394956   6.288861   4.014587
    22  C    6.879569   7.563155   5.509446   5.197523   3.312742
    23  C    6.638397   7.332344   5.263850   4.968896   3.063423
    24  C    6.175322   7.012640   4.902402   4.914477   2.574976
    25  H    6.754431   7.758694   5.702069   6.080583   3.440638
    26  H    7.967946   8.890303   6.760116   6.891025   4.315721
    27  H    8.030734   8.988376   6.898881   7.127670   4.512646
    28  H    8.069214   8.837110   6.811070   6.693700   4.591482
    29  H    8.643015   9.440201   7.316723   7.176783   4.887454
    30  H    7.591973   8.173523   6.217674   5.747773   4.229065
    31  H    6.044512   6.700084   4.704916   4.389596   2.727727
    32  H    6.229582   6.801328   4.861100   4.390091   3.068746
    33  H    7.676028   8.356373   6.310356   5.990936   4.122896
    34  H    6.708464   7.518960   5.499731   5.510145   3.408670
    35  H    6.384245   7.318365   5.261041   5.507703   2.997431
    36  H    4.839065   5.801559   3.835016   4.270483   2.081020
    37  O    6.433938   7.304450   5.771109   6.252235   4.664553
    38  O    5.380762   6.372764   4.737728   5.398503   3.587745
    39  H    6.175476   7.198697   5.559856   6.252549   4.247537
    40  H    6.282739   7.108444   5.815302   6.371849   5.112375
    41  H    3.402105   4.304333   3.858611   4.947581   4.671408
                   11         12         13         14         15
    11  H    0.000000
    12  H    1.790085   0.000000
    13  N    2.108903   2.091964   0.000000
    14  C    2.683079   3.388000   1.489399   0.000000
    15  H    2.598663   3.758472   2.125150   1.092105   0.000000
    16  H    3.716464   4.171342   2.100148   1.091154   1.807656
    17  H    2.858818   3.613149   2.105227   1.089827   1.784541
    18  Se   4.268300   2.893300   3.357553   4.401737   5.307932
    19  C    3.833003   2.898536   2.553688   3.805980   4.202011
    20  C    3.934380   2.730141   3.421624   4.822324   5.090902
    21  C    4.006904   3.364588   4.039342   5.244486   5.191241
    22  C    2.947753   3.022786   3.436947   4.371227   4.074302
    23  C    2.791844   3.176288   2.569638   3.200955   2.862541
    24  C    2.866551   2.690469   1.523666   2.480553   2.700042
    25  H    4.221477   3.050344   2.643079   3.889799   4.536416
    26  H    4.747933   3.973785   3.400949   4.433648   4.737978
    27  H    4.999134   3.649334   4.359555   5.767278   6.105209
    28  H    4.527225   3.811288   4.893629   6.138459   6.065435
    29  H    4.864281   4.331161   4.642979   5.730935   5.625133
    30  H    3.659712   4.023186   4.380609   5.117477   4.623237
    31  H    2.257064   2.407574   3.325309   4.294832   4.045174
    32  H    2.508711   3.495836   2.690506   2.853436   2.185948
    33  H    3.874283   4.201798   3.415700   3.875849   3.478676
    34  H    3.690524   3.686206   2.045797   2.432517   2.672863
    35  H    3.513199   2.006329   3.304143   4.775374   5.122859
    36  H    2.966810   2.420837   1.058473   2.034281   2.951836
    37  O    5.411766   5.101228   3.393378   3.224720   4.177325
    38  O    4.544829   3.841687   2.698703   3.132707   4.199652
    39  H    5.245674   4.288710   3.378909   3.990400   5.022620
    40  H    5.871157   5.627174   3.990231   3.640474   4.619466
    41  H    5.519127   4.818054   5.198334   5.621125   6.489243
                   16         17         18         19         20
    16  H    0.000000
    17  H    1.775613   0.000000
    18  Se   4.716346   4.281071   0.000000
    19  C    3.920643   4.611674   3.919576   0.000000
    20  C    5.182413   5.512953   4.196207   1.530861   0.000000
    21  C    5.709741   6.019898   5.504548   2.527888   1.528966
    22  C    4.997023   5.127982   5.640820   2.961059   2.524453
    23  C    3.663351   4.129946   5.449370   2.554599   2.971796
    24  C    2.726276   3.417964   4.242250   1.537550   2.605815
    25  H    3.880477   4.541920   3.161577   1.094225   2.174433
    26  H    4.346843   5.348826   4.872813   1.098733   2.143017
    27  H    6.017006   6.450801   4.572860   2.146115   1.096220
    28  H    6.689541   6.826157   5.975329   3.480992   2.170364
    29  H    6.039536   6.619630   6.281996   2.803351   2.158925
    30  H    5.744204   5.884042   6.720632   3.947729   3.476527
    31  H    5.099817   4.849928   5.240491   3.399833   2.817921
    32  H    3.455133   3.703405   5.853861   3.498352   3.957899
    33  H    4.094110   4.898881   6.279536   2.893923   3.424337
    34  H    2.240024   3.472014   4.796801   2.127414   3.475965
    35  H    5.285354   5.273901   3.506099   2.173036   1.096492
    36  H    2.261736   2.403701   2.597214   2.575126   3.572163
    37  O    2.420173   3.474871   4.224334   4.270043   5.661057
    38  O    2.878810   3.200380   2.507552   3.636068   4.734651
    39  H    3.661169   4.151841   2.578829   3.654132   4.720975
    40  H    2.890273   3.617212   4.462321   5.142842   6.472741
    41  H    6.038657   4.915351   2.945154   6.651068   6.922738
                   21         22         23         24         25
    21  C    0.000000
    22  C    1.529935   0.000000
    23  C    2.539871   1.535611   0.000000
    24  C    3.011110   2.604159   1.537361   0.000000
    25  H    3.480373   3.942486   3.485949   2.165767   0.000000
    26  H    2.812191   3.402574   2.884176   2.111620   1.755266
    27  H    2.167202   3.475572   3.958113   3.515556   2.506805
    28  H    1.096102   2.165610   3.487638   4.031889   4.318384
    29  H    1.100156   2.158657   2.816796   3.353659   3.811290
    30  H    2.169441   1.096671   2.150410   3.514965   4.975776
    31  H    2.154763   1.095968   2.181991   2.981005   4.202273
    32  H    3.491666   2.179335   1.096869   2.182925   4.304009
    33  H    2.831307   2.144617   1.098006   2.116448   3.884438
    34  H    3.873426   3.486434   2.146223   1.094440   2.543130
    35  H    2.172464   2.838445   3.417646   2.981087   2.474680
    36  H    4.527210   4.226414   3.429641   2.075539   2.213893
    37  O    6.667936   6.464131   5.295067   3.886287   3.648642
    38  O    5.921903   5.830789   4.989018   3.513552   2.832288
    39  H    6.041698   6.187160   5.431014   3.905032   2.673120
    40  H    7.506337   7.240227   6.085128   4.707919   4.470897
    41  H    8.028946   7.814440   7.577849   6.533550   5.977159
                   26         27         28         29         30
    26  H    0.000000
    27  H    2.406982   0.000000
    28  H    3.801428   2.518276   0.000000
    29  H    2.641251   2.467628   1.759405   0.000000
    30  H    4.211389   4.310135   2.511273   2.469409   0.000000
    31  H    4.095291   3.817853   2.459311   3.058057   1.751186
    32  H    3.885132   4.990416   4.321424   3.822771   2.505360
    33  H    2.795045   4.234985   3.814201   2.665539   2.404922
    34  H    2.260882   4.234211   4.945640   3.972648   4.250836
    35  H    3.055426   1.745609   2.486122   3.071416   3.840264
    36  H    3.422913   4.329174   5.364832   5.103486   5.240024
    37  O    4.561107   6.151716   7.632976   6.927457   7.381419
    38  O    4.273389   5.222585   6.746334   6.403421   6.859696
    39  H    4.173157   5.009038   6.839765   6.451569   7.239140
    40  H    5.501856   6.973552   8.441589   7.827102   8.161771
    41  H    7.639960   7.417150   8.408665   8.918168   8.799565
                   31         32         33         34         35
    31  H    0.000000
    32  H    2.494711   0.000000
    33  H    3.060200   1.744332   0.000000
    34  H    3.984128   2.587840   2.284257   0.000000
    35  H    2.692507   4.226747   4.120632   3.970014   0.000000
    36  H    4.127574   3.697914   4.163988   2.387040   3.399473
    37  O    6.609773   5.478975   5.615046   3.333856   5.761619
    38  O    5.766678   5.276992   5.570494   3.465120   4.564219
    39  H    6.198446   5.873391   5.922970   3.840745   4.615019
    40  H    7.290976   6.167137   6.468133   4.207294   6.465625
    41  H    7.152058   7.625290   8.531409   7.000331   6.089758
                   36         37         38         39         40
    36  H    0.000000
    37  O    2.683155   0.000000
    38  O    1.681371   1.719033   0.000000
    39  H    2.338386   2.051458   0.968365   0.000000
    40  H    3.259210   0.967558   2.054833   2.438389   0.000000
    41  H    4.618842   5.670855   4.234065   4.594230   5.402976
                   41
    41  H    0.000000
 Symmetry turned off by external request.
 Stoichiometry    C14H23NO2Se
 Framework group  C1[X(C14H23NO2Se)]
 Deg. of freedom   117
 Full point group                 C1      NOp   1
 Rotational constants (GHZ):           0.4298379           0.2436288           0.2218409
 Leave Link  202 at Sat Aug 20 08:20:45 2022, MaxMem=  1610612736 cpu:               5.9 elap:               0.5
 (Enter /home/p20180441/g16/l301.exe)
 Standard basis: 6-31+G(d,p) (6D, 7F)
 Ernie: Thresh=  0.10000D-02 Tol=  0.10000D-05 Strict=F.
   472 basis functions,   792 primitive gaussians,   472 cartesian basis functions
    82 alpha electrons       82 beta electrons
       nuclear repulsion energy      1904.4585525000 Hartrees.
 IExCor=  408 DFT=T Ex+Corr=B3PW91 ExCW=0 ScaHFX=  0.200000
 ScaDFX=  0.800000  0.720000  1.000000  0.810000 ScalE2=  1.000000  1.000000
 IRadAn=      5 IRanWt=     -1 IRanGd=            0 ICorTp=0 IEmpDi=  4
 NAtoms=   41 NActive=   41 NUniq=   41 SFac= 1.00D+00 NAtFMM=   60 NAOKFM=F Big=F
 Integral buffers will be    131072 words long.
 Raffenetti 2 integral format.
 Two-electron integral symmetry is turned off.
 Leave Link  301 at Sat Aug 20 08:20:46 2022, MaxMem=  1610612736 cpu:              12.1 elap:               0.9
 (Enter /home/p20180441/g16/l302.exe)
 NPDir=0 NMtPBC=     1 NCelOv=     1 NCel=       1 NClECP=     1 NCelD=      1
         NCelK=      1 NCelE2=     1 NClLst=     1 CellRange=     0.0.
 One-electron integrals computed using PRISM.
 NBasis=   472 RedAO= T EigKep=  1.10D-06  NBF=   472
 NBsUse=   472 1.00D-06 EigRej= -1.00D+00 NBFU=   472
 Precomputing XC quadrature grid using
 IXCGrd= 4 IRadAn=           5 IRanWt=          -1 IRanGd=           0 AccXCQ= 0.00D+00.
 Generated NRdTot=       0 NPtTot=           0 NUsed=           0 NTot=          32
 NSgBfM=   471   470   470   470   471 MxSgAt=    41 MxSgA2=    41.
 Leave Link  302 at Sat Aug 20 08:20:54 2022, MaxMem=  1610612736 cpu:             151.6 elap:               8.1
 (Enter /home/p20180441/g16/l303.exe)
 DipDrv:  MaxL=1.
 Leave Link  303 at Sat Aug 20 08:20:56 2022, MaxMem=  1610612736 cpu:              12.5 elap:               1.3
 (Enter /home/p20180441/g16/l401.exe)
 ExpMin= 3.00D-02 ExpMax= 5.61D+05 ExpMxC= 5.42D+03 IAcc=3 IRadAn=         5 AccDes= 0.00D+00
 Harris functional with IExCor=  408 and IRadAn=       5 diagonalized for initial guess.
 HarFok:  IExCor=  408 AccDes= 0.00D+00 IRadAn=         5 IDoV= 1 UseB2=F ITyADJ=14
 ICtDFT=  3500011 ScaDFX=  1.000000  1.000000  1.000000  1.000000
 FoFCou: FMM=F IPFlag=           0 FMFlag=      100000 FMFlg1=           0
         NFxFlg=           0 DoJE=T BraDBF=F KetDBF=T FulRan=T
         wScrn=  0.000000 ICntrl=       500 IOpCl=  0 I1Cent=   200000004 NGrid=           0
         NMat0=    1 NMatS0=      1 NMatT0=    0 NMatD0=    1 NMtDS0=    0 NMtDT0=    0
 Symmetry not used in FoFCou.
 Harris En= -3152.23862248906    
 JPrj=0 DoOrth=F DoCkMO=F.
 Leave Link  401 at Sat Aug 20 08:21:05 2022, MaxMem=  1610612736 cpu:             169.7 elap:               9.4
 (Enter /home/p20180441/g16/l502.exe)
 Two-electron integral symmetry not used.
 Closed shell SCF:
 Using DIIS extrapolation, IDIIS=  1040.
 NGot=  1610612736 LenX=  1610144485 LenY=  1609921229
 Requested convergence on RMS density matrix=1.00D-08 within 128 cycles.
 Requested convergence on MAX density matrix=1.00D-06.
 Requested convergence on             energy=1.00D-06.
 No special actions if energy rises.
 Fock matrices will be formed incrementally for  20 cycles.

 Cycle   1  Pass 1  IDiag  1:
 FoFJK:  IHMeth= 1 ICntrl=       0 DoSepK=F KAlg= 0 I1Cent=           0 FoldK=F
 IRaf= 860000000 NMat=       1 IRICut=       1 DoRegI=T DoRafI=F ISym2E= 0 IDoP0=0 IntGTp=1.
 FoFCou: FMM=F IPFlag=           0 FMFlag=      100000 FMFlg1=           0
         NFxFlg=           0 DoJE=F BraDBF=F KetDBF=F FulRan=T
         wScrn=  0.000000 ICntrl=         0 IOpCl=  0 I1Cent=           0 NGrid=           0
         NMat0=    1 NMatS0=      1 NMatT0=    0 NMatD0=    1 NMtDS0=    0 NMtDT0=    0
 Symmetry not used in FoFCou.
 E= -3150.87334141951    
 DIIS: error= 5.62D-02 at cycle   1 NSaved=   1.
 NSaved= 1 IEnMin= 1 EnMin= -3150.87334141951     IErMin= 1 ErrMin= 5.62D-02
 ErrMax= 5.62D-02  0.00D+00 EMaxC= 1.00D-01 BMatC= 9.40D-01 BMatP= 9.40D-01
 IDIUse=3 WtCom= 4.38D-01 WtEn= 5.62D-01
 Coeff-Com:  0.100D+01
 Coeff-En:   0.100D+01
 Coeff:      0.100D+01
 Gap=     0.375 Goal=   None    Shift=    0.000
 GapD=    0.375 DampG=1.000 DampE=0.500 DampFc=0.5000 IDamp=-1.
 Damping current iteration by 5.00D-01
 RMSDP=4.69D-01 MaxDP=8.93D+01              OVMax= 9.49D-01

 Cycle   2  Pass 1  IDiag  1:
 RMSU=  2.09D-01    CP:  1.95D+00
 E= -3150.04857827234     Delta-E=        0.824763147174 Rises=F Damp=T
 DIIS: error= 3.08D-02 at cycle   2 NSaved=   2.
 NSaved= 2 IEnMin= 1 EnMin= -3150.87334141951     IErMin= 2 ErrMin= 3.08D-02
 ErrMax= 3.08D-02  0.00D+00 EMaxC= 1.00D-01 BMatC= 5.56D-01 BMatP= 9.40D-01
 IDIUse=3 WtCom= 6.92D-01 WtEn= 3.08D-01
 Coeff-Com:  0.400D+00 0.600D+00
 Coeff-En:   0.707D+00 0.293D+00
 Coeff:      0.494D+00 0.506D+00
 Gap=     0.268 Goal=   None    Shift=    0.000
 RMSDP=2.36D-01 MaxDP=4.55D+01 DE= 8.25D-01 OVMax= 7.28D-01

 Cycle   3  Pass 1  IDiag  1:
 RMSU=  2.68D-02    CP:  9.99D-01 -2.61D-03
 E= -3150.98929041633     Delta-E=       -0.940712143994 Rises=F Damp=F
 DIIS: error= 2.81D-02 at cycle   3 NSaved=   3.
 NSaved= 3 IEnMin= 3 EnMin= -3150.98929041633     IErMin= 3 ErrMin= 2.81D-02
 ErrMax= 2.81D-02  0.00D+00 EMaxC= 1.00D-01 BMatC= 5.01D-01 BMatP= 5.56D-01
 IDIUse=3 WtCom= 7.19D-01 WtEn= 2.81D-01
 EnCoef did     4 forward-backward iterations
 Coeff-Com:  0.129D+00 0.446D+00 0.425D+00
 Coeff-En:   0.228D+00 0.246D+00 0.526D+00
 Coeff:      0.157D+00 0.390D+00 0.453D+00
 Gap=     0.114 Goal=   None    Shift=    0.000
 RMSDP=3.06D-02 MaxDP=4.58D+00 DE=-9.41D-01 OVMax= 5.89D-01

 Cycle   4  Pass 1  IDiag  1:
 RMSU=  1.69D-02    CP:  8.89D-01  6.79D-03  1.75D-01
 E= -3151.55240930064     Delta-E=       -0.563118884307 Rises=F Damp=F
 DIIS: error= 8.69D-03 at cycle   4 NSaved=   4.
 NSaved= 4 IEnMin= 4 EnMin= -3151.55240930064     IErMin= 4 ErrMin= 8.69D-03
 ErrMax= 8.69D-03  0.00D+00 EMaxC= 1.00D-01 BMatC= 5.15D-02 BMatP= 5.01D-01
 IDIUse=3 WtCom= 9.13D-01 WtEn= 8.69D-02
 Coeff-Com:  0.175D-01 0.870D-01 0.232D+00 0.663D+00
 Coeff-En:   0.000D+00 0.000D+00 0.780D-01 0.922D+00
 Coeff:      0.159D-01 0.794D-01 0.219D+00 0.686D+00
 Gap=     0.128 Goal=   None    Shift=    0.000
 RMSDP=2.01D-02 MaxDP=2.72D+00 DE=-5.63D-01 OVMax= 9.02D-02

 Cycle   5  Pass 1  IDiag  1:
 RMSU=  1.00D-02    CP:  8.82D-01 -1.49D-02  5.90D-01  2.55D-01
 E= -3151.57418680636     Delta-E=       -0.021777505720 Rises=F Damp=F
 DIIS: error= 8.87D-03 at cycle   5 NSaved=   5.
 NSaved= 5 IEnMin= 5 EnMin= -3151.57418680636     IErMin= 4 ErrMin= 8.69D-03
 ErrMax= 8.87D-03  0.00D+00 EMaxC= 1.00D-01 BMatC= 3.36D-02 BMatP= 5.15D-02
 IDIUse=3 WtCom= 9.11D-01 WtEn= 8.87D-02
 Coeff-Com:  0.397D-02 0.776D-02 0.133D+00 0.467D+00 0.388D+00
 Coeff-En:   0.000D+00 0.000D+00 0.000D+00 0.351D+00 0.649D+00
 Coeff:      0.362D-02 0.707D-02 0.122D+00 0.456D+00 0.411D+00
 Gap=     0.127 Goal=   None    Shift=    0.000
 RMSDP=5.59D-03 MaxDP=9.04D-01 DE=-2.18D-02 OVMax= 5.76D-02

 Cycle   6  Pass 1  IDiag  1:
 RMSU=  4.41D-03    CP:  9.03D-01 -2.14D-02  6.06D-01  3.52D-01  8.83D-01
 E= -3151.59793889062     Delta-E=       -0.023752084262 Rises=F Damp=F
 DIIS: error= 2.44D-03 at cycle   6 NSaved=   6.
 NSaved= 6 IEnMin= 6 EnMin= -3151.59793889062     IErMin= 6 ErrMin= 2.44D-03
 ErrMax= 2.44D-03  0.00D+00 EMaxC= 1.00D-01 BMatC= 4.23D-03 BMatP= 3.36D-02
 IDIUse=3 WtCom= 9.76D-01 WtEn= 2.44D-02
 Coeff-Com:  0.131D-01-0.247D-01 0.344D-01 0.132D+00 0.258D+00 0.587D+00
 Coeff-En:   0.000D+00 0.000D+00 0.000D+00 0.000D+00 0.114D+00 0.886D+00
 Coeff:      0.127D-01-0.241D-01 0.336D-01 0.129D+00 0.254D+00 0.595D+00
 Gap=     0.122 Goal=   None    Shift=    0.000
 RMSDP=2.86D-03 MaxDP=4.86D-01 DE=-2.38D-02 OVMax= 1.56D-02

 Cycle   7  Pass 1  IDiag  1:
 RMSU=  1.77D-03    CP:  9.07D-01 -1.82D-02  5.76D-01  4.44D-01  7.94D-01
                    CP:  8.40D-01
 E= -3151.60104871329     Delta-E=       -0.003109822664 Rises=F Damp=F
 DIIS: error= 1.47D-03 at cycle   7 NSaved=   7.
 NSaved= 7 IEnMin= 7 EnMin= -3151.60104871329     IErMin= 7 ErrMin= 1.47D-03
 ErrMax= 1.47D-03  0.00D+00 EMaxC= 1.00D-01 BMatC= 1.14D-03 BMatP= 4.23D-03
 IDIUse=3 WtCom= 9.85D-01 WtEn= 1.47D-02
 Coeff-Com:  0.107D-01-0.174D-01 0.184D-01 0.463D-02 0.422D-01 0.290D+00
 Coeff-Com:  0.651D+00
 Coeff-En:   0.000D+00 0.000D+00 0.000D+00 0.000D+00 0.000D+00 0.222D-01
 Coeff-En:   0.978D+00
 Coeff:      0.105D-01-0.172D-01 0.182D-01 0.456D-02 0.415D-01 0.286D+00
 Coeff:      0.656D+00
 Gap=     0.122 Goal=   None    Shift=    0.000
 RMSDP=6.87D-04 MaxDP=8.34D-02 DE=-3.11D-03 OVMax= 1.12D-02

 Cycle   8  Pass 1  IDiag  1:
 RMSU=  4.12D-04    CP:  9.09D-01 -1.82D-02  5.91D-01  4.29D-01  7.80D-01
                    CP:  8.41D-01  9.80D-01
 E= -3151.60198310177     Delta-E=       -0.000934388483 Rises=F Damp=F
 DIIS: error= 5.15D-04 at cycle   8 NSaved=   8.
 NSaved= 8 IEnMin= 8 EnMin= -3151.60198310177     IErMin= 8 ErrMin= 5.15D-04
 ErrMax= 5.15D-04  0.00D+00 EMaxC= 1.00D-01 BMatC= 1.88D-04 BMatP= 1.14D-03
 IDIUse=3 WtCom= 9.95D-01 WtEn= 5.15D-03
 Coeff-Com:  0.458D-02-0.572D-02 0.702D-02-0.295D-01-0.547D-01 0.571D-02
 Coeff-Com:  0.252D+00 0.821D+00
 Coeff-En:   0.000D+00 0.000D+00 0.000D+00 0.000D+00 0.000D+00 0.000D+00
 Coeff-En:   0.000D+00 0.100D+01
 Coeff:      0.455D-02-0.569D-02 0.698D-02-0.293D-01-0.544D-01 0.568D-02
 Coeff:      0.250D+00 0.822D+00
 Gap=     0.121 Goal=   None    Shift=    0.000
 RMSDP=6.38D-04 MaxDP=5.48D-02 DE=-9.34D-04 OVMax= 9.02D-03

 Cycle   9  Pass 1  IDiag  1:
 RMSU=  2.77D-04    CP:  9.10D-01 -1.95D-02  6.00D-01  4.22D-01  7.88D-01
                    CP:  9.26D-01  1.02D+00  5.79D-01
 E= -3151.60218968963     Delta-E=       -0.000206587856 Rises=F Damp=F
 DIIS: error= 7.80D-05 at cycle   9 NSaved=   9.
 NSaved= 9 IEnMin= 9 EnMin= -3151.60218968963     IErMin= 9 ErrMin= 7.80D-05
 ErrMax= 7.80D-05  0.00D+00 EMaxC= 1.00D-01 BMatC= 1.30D-05 BMatP= 1.88D-04
 IDIUse=1 WtCom= 1.00D+00 WtEn= 0.00D+00
 Coeff-Com:  0.603D-03-0.298D-03 0.151D-02-0.549D-02-0.191D-01-0.164D-01
 Coeff-Com: -0.276D-01 0.369D+00 0.698D+00
 Coeff:      0.603D-03-0.298D-03 0.151D-02-0.549D-02-0.191D-01-0.164D-01
 Coeff:     -0.276D-01 0.369D+00 0.698D+00
 Gap=     0.121 Goal=   None    Shift=    0.000
 RMSDP=4.19D-04 MaxDP=4.28D-02 DE=-2.07D-04 OVMax= 2.20D-03

 Cycle  10  Pass 1  IDiag  1:
 RMSU=  9.84D-05    CP:  9.10D-01 -1.88D-02  5.94D-01  4.35D-01  7.72D-01
                    CP:  8.84D-01  1.06D+00  7.35D-01  7.61D-01
 E= -3151.60219596497     Delta-E=       -0.000006275341 Rises=F Damp=F
 DIIS: error= 6.30D-05 at cycle  10 NSaved=  10.
 NSaved=10 IEnMin=10 EnMin= -3151.60219596497     IErMin=10 ErrMin= 6.30D-05
 ErrMax= 6.30D-05  0.00D+00 EMaxC= 1.00D-01 BMatC= 5.78D-06 BMatP= 1.30D-05
 IDIUse=1 WtCom= 1.00D+00 WtEn= 0.00D+00
 Coeff-Com: -0.703D-04 0.125D-03 0.384D-03 0.208D-02-0.138D-02 0.197D-02
 Coeff-Com: -0.288D-01 0.131D+00 0.393D+00 0.502D+00
 Coeff:     -0.703D-04 0.125D-03 0.384D-03 0.208D-02-0.138D-02 0.197D-02
 Coeff:     -0.288D-01 0.131D+00 0.393D+00 0.502D+00
 Gap=     0.121 Goal=   None    Shift=    0.000
 RMSDP=1.14D-04 MaxDP=2.59D-02 DE=-6.28D-06 OVMax= 1.19D-03

 Cycle  11  Pass 1  IDiag  1:
 RMSU=  3.37D-05    CP:  9.10D-01 -1.88D-02  5.93D-01  4.31D-01  7.75D-01
                    CP:  8.83D-01  1.02D+00  6.86D-01  7.76D-01  7.92D-01
 E= -3151.60220214419     Delta-E=       -0.000006179227 Rises=F Damp=F
 DIIS: error= 2.89D-05 at cycle  11 NSaved=  11.
 NSaved=11 IEnMin=11 EnMin= -3151.60220214419     IErMin=11 ErrMin= 2.89D-05
 ErrMax= 2.89D-05  0.00D+00 EMaxC= 1.00D-01 BMatC= 5.23D-07 BMatP= 5.78D-06
 IDIUse=1 WtCom= 1.00D+00 WtEn= 0.00D+00
 Coeff-Com: -0.662D-04 0.864D-04-0.712D-05 0.150D-02 0.993D-03 0.421D-02
 Coeff-Com: -0.974D-02 0.465D-01 0.163D+00 0.292D+00 0.501D+00
 Coeff:     -0.662D-04 0.864D-04-0.712D-05 0.150D-02 0.993D-03 0.421D-02
 Coeff:     -0.974D-02 0.465D-01 0.163D+00 0.292D+00 0.501D+00
 Gap=     0.121 Goal=   None    Shift=    0.000
 RMSDP=3.52D-05 MaxDP=5.02D-03 DE=-6.18D-06 OVMax= 2.58D-04

 Cycle  12  Pass 1  IDiag  1:
 RMSU=  1.14D-05    CP:  9.10D-01 -1.88D-02  5.93D-01  4.32D-01  7.75D-01
                    CP:  8.81D-01  1.02D+00  6.75D-01  7.83D-01  8.10D-01
                    CP:  7.05D-01
 E= -3151.60220264938     Delta-E=       -0.000000505188 Rises=F Damp=F
 DIIS: error= 9.88D-06 at cycle  12 NSaved=  12.
 NSaved=12 IEnMin=12 EnMin= -3151.60220264938     IErMin=12 ErrMin= 9.88D-06
 ErrMax= 9.88D-06  0.00D+00 EMaxC= 1.00D-01 BMatC= 7.57D-08 BMatP= 5.23D-07
 IDIUse=1 WtCom= 1.00D+00 WtEn= 0.00D+00
 Coeff-Com: -0.163D-04 0.107D-04-0.690D-04 0.554D-03 0.900D-03 0.274D-02
 Coeff-Com:  0.114D-02 0.948D-02 0.337D-01 0.843D-01 0.267D+00 0.601D+00
 Coeff:     -0.163D-04 0.107D-04-0.690D-04 0.554D-03 0.900D-03 0.274D-02
 Coeff:      0.114D-02 0.948D-02 0.337D-01 0.843D-01 0.267D+00 0.601D+00
 Gap=     0.121 Goal=   None    Shift=    0.000
 RMSDP=1.56D-05 MaxDP=1.61D-03 DE=-5.05D-07 OVMax= 9.82D-05

 Cycle  13  Pass 1  IDiag  1:
 RMSU=  4.32D-06    CP:  9.10D-01 -1.88D-02  5.93D-01  4.32D-01  7.76D-01
                    CP:  8.83D-01  1.02D+00  6.76D-01  7.84D-01  7.83D-01
                    CP:  7.11D-01  9.43D-01
 E= -3151.60220271619     Delta-E=       -0.000000066808 Rises=F Damp=F
 DIIS: error= 2.48D-06 at cycle  13 NSaved=  13.
 NSaved=13 IEnMin=13 EnMin= -3151.60220271619     IErMin=13 ErrMin= 2.48D-06
 ErrMax= 2.48D-06  0.00D+00 EMaxC= 1.00D-01 BMatC= 8.37D-09 BMatP= 7.57D-08
 IDIUse=1 WtCom= 1.00D+00 WtEn= 0.00D+00
 Coeff-Com: -0.891D-06 0.169D-05-0.462D-04 0.647D-04 0.287D-03 0.885D-03
 Coeff-Com:  0.239D-02 0.109D-02-0.688D-03 0.806D-02 0.787D-01 0.307D+00
 Coeff-Com:  0.602D+00
 Coeff:     -0.891D-06 0.169D-05-0.462D-04 0.647D-04 0.287D-03 0.885D-03
 Coeff:      0.239D-02 0.109D-02-0.688D-03 0.806D-02 0.787D-01 0.307D+00
 Coeff:      0.602D+00
 Gap=     0.121 Goal=   None    Shift=    0.000
 RMSDP=7.46D-06 MaxDP=1.07D-03 DE=-6.68D-08 OVMax= 3.13D-05

 Cycle  14  Pass 1  IDiag  1:
 RMSU=  1.16D-06    CP:  9.10D-01 -1.88D-02  5.93D-01  4.32D-01  7.76D-01
                    CP:  8.82D-01  1.02D+00  6.73D-01  7.81D-01  7.95D-01
                    CP:  7.39D-01  9.13D-01  6.22D-01
 E= -3151.60220272358     Delta-E=       -0.000000007387 Rises=F Damp=F
 DIIS: error= 1.37D-06 at cycle  14 NSaved=  14.
 NSaved=14 IEnMin=14 EnMin= -3151.60220272358     IErMin=14 ErrMin= 1.37D-06
 ErrMax= 1.37D-06  0.00D+00 EMaxC= 1.00D-01 BMatC= 1.69D-09 BMatP= 8.37D-09
 IDIUse=1 WtCom= 1.00D+00 WtEn= 0.00D+00
 Coeff-Com:  0.508D-06-0.959D-06-0.177D-04-0.163D-04 0.101D-03 0.233D-03
 Coeff-Com:  0.160D-02-0.720D-03-0.591D-02-0.817D-02 0.114D-01 0.108D+00
 Coeff-Com:  0.372D+00 0.522D+00
 Coeff:      0.508D-06-0.959D-06-0.177D-04-0.163D-04 0.101D-03 0.233D-03
 Coeff:      0.160D-02-0.720D-03-0.591D-02-0.817D-02 0.114D-01 0.108D+00
 Coeff:      0.372D+00 0.522D+00
 Gap=     0.121 Goal=   None    Shift=    0.000
 RMSDP=1.39D-06 MaxDP=2.62D-04 DE=-7.39D-09 OVMax= 2.30D-05

 Cycle  15  Pass 1  IDiag  1:
 RMSU=  4.49D-07    CP:  9.10D-01 -1.88D-02  5.93D-01  4.32D-01  7.76D-01
                    CP:  8.82D-01  1.02D+00  6.73D-01  7.80D-01  7.95D-01
                    CP:  7.32D-01  9.51D-01  7.28D-01  7.96D-01
 E= -3151.60220272525     Delta-E=       -0.000000001673 Rises=F Damp=F
 DIIS: error= 2.86D-07 at cycle  15 NSaved=  15.
 NSaved=15 IEnMin=15 EnMin= -3151.60220272525     IErMin=15 ErrMin= 2.86D-07
 ErrMax= 2.86D-07  0.00D+00 EMaxC= 1.00D-01 BMatC= 9.45D-11 BMatP= 1.69D-09
 IDIUse=1 WtCom= 1.00D+00 WtEn= 0.00D+00
 Coeff-Com:  0.219D-06-0.230D-07-0.481D-05-0.221D-04 0.117D-04-0.123D-04
 Coeff-Com:  0.578D-03-0.348D-03-0.271D-02-0.506D-02-0.370D-02 0.155D-01
 Coeff-Com:  0.120D+00 0.281D+00 0.595D+00
 Coeff:      0.219D-06-0.230D-07-0.481D-05-0.221D-04 0.117D-04-0.123D-04
 Coeff:      0.578D-03-0.348D-03-0.271D-02-0.506D-02-0.370D-02 0.155D-01
 Coeff:      0.120D+00 0.281D+00 0.595D+00
 Gap=     0.121 Goal=   None    Shift=    0.000
 RMSDP=5.29D-07 MaxDP=6.40D-05 DE=-1.67D-09 OVMax= 3.89D-06

 Cycle  16  Pass 1  IDiag  1:
 RMSU=  1.99D-07    CP:  9.10D-01 -1.88D-02  5.93D-01  4.32D-01  7.76D-01
                    CP:  8.82D-01  1.02D+00  6.73D-01  7.80D-01  7.96D-01
                    CP:  7.35D-01  9.59D-01  7.29D-01  8.70D-01  8.78D-01
 E= -3151.60220272546     Delta-E=       -0.000000000213 Rises=F Damp=F
 DIIS: error= 7.60D-08 at cycle  16 NSaved=  16.
 NSaved=16 IEnMin=16 EnMin= -3151.60220272546     IErMin=16 ErrMin= 7.60D-08
 ErrMax= 7.60D-08  0.00D+00 EMaxC= 1.00D-01 BMatC= 9.86D-12 BMatP= 9.45D-11
 IDIUse=1 WtCom= 1.00D+00 WtEn= 0.00D+00
 Coeff-Com:  0.517D-07-0.758D-07-0.777D-06-0.883D-05-0.274D-05-0.352D-04
 Coeff-Com:  0.115D-03-0.750D-04-0.561D-03-0.130D-02-0.251D-02-0.431D-02
 Coeff-Com:  0.174D-01 0.741D-01 0.303D+00 0.614D+00
 Coeff:      0.517D-07-0.758D-07-0.777D-06-0.883D-05-0.274D-05-0.352D-04
 Coeff:      0.115D-03-0.750D-04-0.561D-03-0.130D-02-0.251D-02-0.431D-02
 Coeff:      0.174D-01 0.741D-01 0.303D+00 0.614D+00
 Gap=     0.121 Goal=   None    Shift=    0.000
 RMSDP=3.00D-07 MaxDP=2.60D-05 DE=-2.13D-10 OVMax= 1.07D-06

 Cycle  17  Pass 1  IDiag  1:
 RMSU=  3.68D-08    CP:  9.10D-01 -1.88D-02  5.93D-01  4.32D-01  7.76D-01
                    CP:  8.82D-01  1.02D+00  6.73D-01  7.80D-01  7.95D-01
                    CP:  7.34D-01  9.58D-01  7.42D-01  8.69D-01  8.93D-01
                    CP:  9.30D-01
 E= -3151.60220272544     Delta-E=        0.000000000021 Rises=F Damp=F
 DIIS: error= 1.86D-08 at cycle  17 NSaved=  17.
 NSaved=17 IEnMin=16 EnMin= -3151.60220272546     IErMin=17 ErrMin= 1.86D-08
 ErrMax= 1.86D-08  0.00D+00 EMaxC= 1.00D-01 BMatC= 7.17D-13 BMatP= 9.86D-12
 IDIUse=1 WtCom= 1.00D+00 WtEn= 0.00D+00
 Coeff-Com:  0.157D-07-0.303D-07-0.857D-08-0.242D-05-0.233D-05-0.184D-04
 Coeff-Com:  0.397D-05-0.177D-04-0.298D-04-0.141D-03-0.875D-03-0.364D-02
 Coeff-Com: -0.205D-02 0.925D-02 0.846D-01 0.286D+00 0.627D+00
 Coeff:      0.157D-07-0.303D-07-0.857D-08-0.242D-05-0.233D-05-0.184D-04
 Coeff:      0.397D-05-0.177D-04-0.298D-04-0.141D-03-0.875D-03-0.364D-02
 Coeff:     -0.205D-02 0.925D-02 0.846D-01 0.286D+00 0.627D+00
 Gap=     0.121 Goal=   None    Shift=    0.000
 RMSDP=4.31D-08 MaxDP=5.58D-06 DE= 2.09D-11 OVMax= 2.27D-07

 Cycle  18  Pass 1  IDiag  1:
 RMSU=  1.18D-08    CP:  9.10D-01 -1.88D-02  5.93D-01  4.32D-01  7.76D-01
                    CP:  8.82D-01  1.02D+00  6.73D-01  7.80D-01  7.95D-01
                    CP:  7.34D-01  9.58D-01  7.40D-01  8.76D-01  9.12D-01
                    CP:  9.05D-01  7.34D-01
 E= -3151.60220272538     Delta-E=        0.000000000057 Rises=F Damp=F
 DIIS: error= 7.43D-09 at cycle  18 NSaved=  18.
 NSaved=18 IEnMin=16 EnMin= -3151.60220272546     IErMin=18 ErrMin= 7.43D-09
 ErrMax= 7.43D-09  0.00D+00 EMaxC= 1.00D-01 BMatC= 6.26D-14 BMatP= 7.17D-13
 IDIUse=1 WtCom= 1.00D+00 WtEn= 0.00D+00
 Coeff-Com: -0.204D-08-0.112D-07 0.757D-07-0.432D-06-0.104D-05-0.659D-05
 Coeff-Com: -0.816D-05-0.600D-05 0.273D-04 0.380D-04-0.250D-03-0.143D-02
 Coeff-Com: -0.226D-02-0.126D-02 0.149D-01 0.846D-01 0.279D+00 0.626D+00
 Coeff:     -0.204D-08-0.112D-07 0.757D-07-0.432D-06-0.104D-05-0.659D-05
 Coeff:     -0.816D-05-0.600D-05 0.273D-04 0.380D-04-0.250D-03-0.143D-02
 Coeff:     -0.226D-02-0.126D-02 0.149D-01 0.846D-01 0.279D+00 0.626D+00
 Gap=     0.121 Goal=   None    Shift=    0.000
 RMSDP=1.97D-08 MaxDP=4.44D-06 DE= 5.73D-11 OVMax= 8.45D-08

 Cycle  19  Pass 1  IDiag  1:
 RMSU=  3.99D-09    CP:  9.10D-01 -1.88D-02  5.93D-01  4.32D-01  7.76D-01
                    CP:  8.82D-01  1.02D+00  6.73D-01  7.80D-01  7.95D-01
                    CP:  7.34D-01  9.58D-01  7.41D-01  8.77D-01  9.15D-01
                    CP:  9.35D-01  7.95D-01  8.74D-01
 E= -3151.60220272539     Delta-E=       -0.000000000010 Rises=F Damp=F
 DIIS: error= 5.12D-09 at cycle  19 NSaved=  19.
 NSaved=19 IEnMin=16 EnMin= -3151.60220272546     IErMin=19 ErrMin= 5.12D-09
 ErrMax= 5.12D-09  0.00D+00 EMaxC= 1.00D-01 BMatC= 1.64D-14 BMatP= 6.26D-14
 IDIUse=1 WtCom= 1.00D+00 WtEn= 0.00D+00
 Coeff-Com: -0.147D-08-0.978D-09 0.197D-07 0.485D-07-0.213D-06-0.772D-06
 Coeff-Com: -0.423D-05-0.725D-06 0.167D-04 0.402D-04 0.143D-04-0.104D-03
 Coeff-Com: -0.549D-03-0.127D-02-0.336D-02 0.397D-02 0.440D-01 0.240D+00
 Coeff-Com:  0.718D+00
 Coeff:     -0.147D-08-0.978D-09 0.197D-07 0.485D-07-0.213D-06-0.772D-06
 Coeff:     -0.423D-05-0.725D-06 0.167D-04 0.402D-04 0.143D-04-0.104D-03
 Coeff:     -0.549D-03-0.127D-02-0.336D-02 0.397D-02 0.440D-01 0.240D+00
 Coeff:      0.718D+00
 Gap=     0.121 Goal=   None    Shift=    0.000
 RMSDP=9.21D-09 MaxDP=1.86D-06 DE=-1.00D-11 OVMax= 8.94D-08

 Cycle  20  Pass 1  IDiag  1:
 RMSU=  7.48D-10    CP:  9.10D-01 -1.88D-02  5.93D-01  4.32D-01  7.76D-01
                    CP:  8.82D-01  1.02D+00  6.73D-01  7.80D-01  7.95D-01
                    CP:  7.34D-01  9.58D-01  7.41D-01  8.77D-01  9.14D-01
                    CP:  9.40D-01  8.10D-01  9.06D-01  1.14D+00
 E= -3151.60220272532     Delta-E=        0.000000000078 Rises=F Damp=F
 DIIS: error= 5.50D-10 at cycle  20 NSaved=  20.
 NSaved=20 IEnMin=16 EnMin= -3151.60220272546     IErMin=20 ErrMin= 5.50D-10
 ErrMax= 5.50D-10  0.00D+00 EMaxC= 1.00D-01 BMatC= 5.72D-16 BMatP= 1.64D-14
 IDIUse=1 WtCom= 1.00D+00 WtEn= 0.00D+00
 Large coefficients: NSaved= 20 BigCof=    0.00 CofMax=   10.00 Det=-3.13D-15
 Inversion failed.  Reducing to 19 matrices.
 Large coefficients: NSaved= 19 BigCof=    0.00 CofMax=   10.00 Det=-3.13D-15
 Inversion failed.  Reducing to 18 matrices.
 Large coefficients: NSaved= 18 BigCof=    0.00 CofMax=   10.00 Det=-3.13D-15
 Inversion failed.  Reducing to 17 matrices.
 Large coefficients: NSaved= 17 BigCof=    0.00 CofMax=   10.00 Det=-3.13D-15
 Inversion failed.  Reducing to 16 matrices.
 Large coefficients: NSaved= 16 BigCof=    0.00 CofMax=   10.00 Det=-3.20D-15
 Inversion failed.  Reducing to 15 matrices.
 Coeff-Com:  0.168D-06-0.324D-06-0.106D-05-0.148D-05 0.310D-05 0.140D-04
 Coeff-Com:  0.875D-04 0.104D-03-0.437D-04-0.180D-02-0.463D-02-0.923D-02
 Coeff-Com:  0.354D-01 0.324D+00 0.656D+00
 Coeff:      0.168D-06-0.324D-06-0.106D-05-0.148D-05 0.310D-05 0.140D-04
 Coeff:      0.875D-04 0.104D-03-0.437D-04-0.180D-02-0.463D-02-0.923D-02
 Coeff:      0.354D-01 0.324D+00 0.656D+00
 Gap=     0.121 Goal=   None    Shift=    0.000
 RMSDP=1.89D-09 MaxDP=3.02D-07 DE= 7.82D-11 OVMax= 1.63D-08

 SCF Done:  E(RB3PW91) =  -3151.60220273     A.U. after   20 cycles
            NFock= 20  Conv=0.19D-08     -V/T= 2.0056
 KE= 3.133920166955D+03 PE=-1.128654495706D+04 EE= 3.096564034875D+03
 Leave Link  502 at Sat Aug 20 08:24:46 2022, MaxMem=  1610612736 cpu:            4472.4 elap:             220.1
 (Enter /home/p20180441/g16/l801.exe)
 DoSCS=F DFT=T ScalE2(SS,OS)=  1.000000  1.000000
 Range of M.O.s used for correlation:     1   472
 NBasis=   472 NAE=    82 NBE=    82 NFC=     0 NFV=     0
 NROrb=    472 NOA=    82 NOB=    82 NVA=   390 NVB=   390

 **** Warning!!: The largest alpha MO coefficient is  0.17880308D+03

 Leave Link  801 at Sat Aug 20 08:24:46 2022, MaxMem=  1610612736 cpu:               2.9 elap:               0.2
 (Enter /home/p20180441/g16/l1101.exe)
 Using compressed storage, NAtomX=    41.
 Will process     42 centers per pass.
 Leave Link 1101 at Sat Aug 20 08:24:50 2022, MaxMem=  1610612736 cpu:              55.0 elap:               3.2
 (Enter /home/p20180441/g16/l1102.exe)
 Symmetrizing basis deriv contribution to polar:
 IMax=3 JMax=2 DiffMx= 0.00D+00
 Leave Link 1102 at Sat Aug 20 08:24:51 2022, MaxMem=  1610612736 cpu:               6.2 elap:               0.7
 (Enter /home/p20180441/g16/l1110.exe)
 Forming Gx(P) for the SCF density, NAtomX=    41.
 Integral derivatives from FoFJK, PRISM(SPDF).
 Do as many integral derivatives as possible in FoFJK.
 G2DrvN: MDV=    1610609648.
 G2DrvN: will do    42 centers at a time, making    1 passes.
 Calling FoFCou, ICntrl=  3107 FMM=F I1Cent=   0 AccDes= 0.00D+00.
 FoFJK:  IHMeth= 1 ICntrl=    3107 DoSepK=F KAlg= 0 I1Cent=           0 FoldK=F
 IRaf=         0 NMat=       1 IRICut=       1 DoRegI=T DoRafI=F ISym2E= 0 IDoP0=0 IntGTp=1.
 FoFCou: FMM=F IPFlag=           0 FMFlag=      100000 FMFlg1=           0
         NFxFlg=           0 DoJE=F BraDBF=F KetDBF=F FulRan=T
         wScrn=  0.000000 ICntrl=      3107 IOpCl=  0 I1Cent=           0 NGrid=           0
         NMat0=    1 NMatS0=      1 NMatT0=    0 NMatD0=    1 NMtDS0=    0 NMtDT0=    0
 Symmetry not used in FoFCou.
 End of G2Drv F.D. properties file   721 does not exist.
 End of G2Drv F.D. properties file   722 does not exist.
 End of G2Drv F.D. properties file   788 does not exist.
 Leave Link 1110 at Sat Aug 20 08:29:07 2022, MaxMem=  1610612736 cpu:            5212.4 elap:             256.1
 (Enter /home/p20180441/g16/l1002.exe)
 Minotr:  Closed shell wavefunction.
          IDoAtm=11111111111111111111111111111111111111111
          Direct CPHF calculation.
          Differentiating once with respect to nuclear coordinates.
          Requested convergence is 1.0D-08 RMS, and 1.0D-07 maximum.
          Secondary convergence is 1.0D-12 RMS, and 1.0D-12 maximum.
          NewPWx=T KeepS1=F KeepF1=F KeepIn=T MapXYZ=F SortEE=F KeepMc=T.
        12667 words used for storage of precomputed grid.
 Two-electron integral symmetry not used.
          MDV=    1610612736 using IRadAn=       1.
          Solving linear equations simultaneously, MaxMat=     360.
 FoF2E skips out because all densities are zero.
 CalDSu exits because no D1Ps are significant.
 FoFJK:  IHMeth= 1 ICntrl=       0 DoSepK=F KAlg= 0 I1Cent=           0 FoldK=F
 IRaf= 840000000 NMat=     123 IRICut=     307 DoRegI=T DoRafI=T ISym2E= 0 IDoP0=0 IntGTp=1.
 FoFCou: FMM=F IPFlag=           0 FMFlag=      100000 FMFlg1=           0
         NFxFlg=           0 DoJE=F BraDBF=F KetDBF=F FulRan=T
         wScrn=  0.000000 ICntrl=         0 IOpCl=  0 I1Cent=           0 NGrid=           0
         NMat0=  123 NMatS0=    123 NMatT0=    0 NMatD0=  123 NMtDS0=    0 NMtDT0=    0
 Symmetry not used in FoFCou.
 Raff kept on since  83.00% of shell-pairs survive, threshold=   0.20 IRatSp=83.
          There are   126 degrees of freedom in the 1st order CPHF.  IDoFFX=6 NUNeed=     0.
    120 vectors produced by pass  0 Test12= 3.20D-14 1.00D-09 XBig12= 5.36D-01 1.34D-01.
 AX will form   120 AO Fock derivatives at one time.
    120 vectors produced by pass  1 Test12= 3.20D-14 1.00D-09 XBig12= 8.16D-02 7.48D-02.
    120 vectors produced by pass  2 Test12= 3.20D-14 1.00D-09 XBig12= 6.15D-04 3.45D-03.
    120 vectors produced by pass  3 Test12= 3.20D-14 1.00D-09 XBig12= 2.27D-06 1.37D-04.
    120 vectors produced by pass  4 Test12= 3.20D-14 1.00D-09 XBig12= 6.28D-09 5.85D-06.
     98 vectors produced by pass  5 Test12= 3.20D-14 1.00D-09 XBig12= 9.79D-12 2.40D-07.
     19 vectors produced by pass  6 Test12= 3.20D-14 1.00D-09 XBig12= 2.03D-14 1.86D-08.
     11 vectors produced by pass  7 Test12= 3.20D-14 1.00D-09 XBig12= 3.89D-15 6.85D-09.
      3 vectors produced by pass  8 Test12= 3.20D-14 1.00D-09 XBig12= 6.38D-16 2.12D-09.
      3 vectors produced by pass  9 Test12= 3.20D-14 1.00D-09 XBig12= 3.95D-15 5.32D-09.
      3 vectors produced by pass 10 Test12= 3.20D-14 1.00D-09 XBig12= 2.03D-15 3.39D-09.
      3 vectors produced by pass 11 Test12= 3.20D-14 1.00D-09 XBig12= 1.28D-14 1.18D-08.
      3 vectors produced by pass 12 Test12= 3.20D-14 1.00D-09 XBig12= 7.61D-15 6.94D-09.
      3 vectors produced by pass 13 Test12= 3.20D-14 1.00D-09 XBig12= 5.17D-15 6.00D-09.
      3 vectors produced by pass 14 Test12= 3.20D-14 1.00D-09 XBig12= 2.86D-14 1.46D-08.
      3 vectors produced by pass 15 Test12= 3.20D-14 1.00D-09 XBig12= 1.07D-14 9.05D-09.
      3 vectors produced by pass 16 Test12= 3.20D-14 1.00D-09 XBig12= 1.04D-14 7.29D-09.
      3 vectors produced by pass 17 Test12= 3.20D-14 1.00D-09 XBig12= 5.10D-15 6.05D-09.
      3 vectors produced by pass 18 Test12= 3.20D-14 1.00D-09 XBig12= 8.38D-15 5.76D-09.
      3 vectors produced by pass 19 Test12= 3.20D-14 1.00D-09 XBig12= 1.40D-14 9.28D-09.
      3 vectors produced by pass 20 Test12= 3.20D-14 1.00D-09 XBig12= 2.45D-15 3.33D-09.
      3 vectors produced by pass 21 Test12= 3.20D-14 1.00D-09 XBig12= 1.22D-14 8.98D-09.
      3 vectors produced by pass 22 Test12= 3.20D-14 1.00D-09 XBig12= 4.84D-15 5.87D-09.
      2 vectors produced by pass 23 Test12= 3.20D-14 1.00D-09 XBig12= 2.68D-15 4.49D-09.
 InvSVY:  IOpt=1 It=  1 EMax= 8.88D-16
 Solved reduced A of dimension   775 with   126 vectors.
 End of Minotr F.D. properties file   721 does not exist.
 End of Minotr F.D. properties file   722 does not exist.
 End of Minotr F.D. properties file   788 does not exist.
 Leave Link 1002 at Sat Aug 20 08:40:08 2022, MaxMem=  1610612736 cpu:           13461.6 elap:             660.6
 (Enter /home/p20180441/g16/l601.exe)
 Copying SCF densities to generalized density rwf, IOpCl= 0 IROHF=0.

 **********************************************************************

            Population analysis using the SCF density.

 **********************************************************************

 Alpha  occ. eigenvalues -- -453.79018 -57.41114 -52.08210 -52.08012 -52.07867
 Alpha  occ. eigenvalues --  -19.18507 -19.13688 -14.43656 -10.24945 -10.23579
 Alpha  occ. eigenvalues --  -10.22576 -10.20555 -10.20048 -10.19298 -10.19214
 Alpha  occ. eigenvalues --  -10.19148 -10.18698 -10.18513 -10.18135 -10.18017
 Alpha  occ. eigenvalues --  -10.17917 -10.17321  -7.66163  -5.70215  -5.69673
 Alpha  occ. eigenvalues --   -5.69078  -2.05508  -2.05382  -2.04906  -2.04453
 Alpha  occ. eigenvalues --   -2.04379  -1.02217  -1.00797  -0.90293  -0.86763
 Alpha  occ. eigenvalues --   -0.85489  -0.79444  -0.77324  -0.77021  -0.75677
 Alpha  occ. eigenvalues --   -0.73187  -0.69326  -0.64674  -0.64232  -0.62810
 Alpha  occ. eigenvalues --   -0.60773  -0.58308  -0.57284  -0.54676  -0.52398
 Alpha  occ. eigenvalues --   -0.51335  -0.49239  -0.48641  -0.47711  -0.46560
 Alpha  occ. eigenvalues --   -0.46389  -0.45160  -0.44609  -0.43852  -0.43184
 Alpha  occ. eigenvalues --   -0.42601  -0.41448  -0.41058  -0.40385  -0.39945
 Alpha  occ. eigenvalues --   -0.39797  -0.39219  -0.38357  -0.37480  -0.36531
 Alpha  occ. eigenvalues --   -0.36148  -0.34692  -0.33258  -0.32796  -0.32662
 Alpha  occ. eigenvalues --   -0.30756  -0.30288  -0.27126  -0.26709  -0.25691
 Alpha  occ. eigenvalues --   -0.18827  -0.18091
 Alpha virt. eigenvalues --   -0.05987  -0.01813  -0.00883  -0.00649   0.00401
 Alpha virt. eigenvalues --    0.01612   0.01858   0.02313   0.03170   0.03433
 Alpha virt. eigenvalues --    0.03948   0.04188   0.04950   0.05645   0.05861
 Alpha virt. eigenvalues --    0.06310   0.06856   0.06907   0.07529   0.07729
 Alpha virt. eigenvalues --    0.07994   0.08155   0.08318   0.09683   0.10062
 Alpha virt. eigenvalues --    0.10381   0.10774   0.11035   0.11230   0.11556
 Alpha virt. eigenvalues --    0.11892   0.12304   0.12689   0.13098   0.13201
 Alpha virt. eigenvalues --    0.13533   0.13930   0.14319   0.14785   0.15197
 Alpha virt. eigenvalues --    0.15566   0.15813   0.16028   0.16283   0.16551
 Alpha virt. eigenvalues --    0.16973   0.17260   0.17599   0.18073   0.18254
 Alpha virt. eigenvalues --    0.18578   0.18758   0.18943   0.19516   0.20004
 Alpha virt. eigenvalues --    0.20105   0.20370   0.20621   0.20917   0.21355
 Alpha virt. eigenvalues --    0.21866   0.22040   0.22373   0.22423   0.23073
 Alpha virt. eigenvalues --    0.23199   0.23549   0.23761   0.24186   0.24483
 Alpha virt. eigenvalues --    0.24711   0.25174   0.25402   0.25750   0.25846
 Alpha virt. eigenvalues --    0.26027   0.26732   0.27481   0.27697   0.28017
 Alpha virt. eigenvalues --    0.28747   0.28865   0.28968   0.29840   0.30297
 Alpha virt. eigenvalues --    0.30537   0.30717   0.31215   0.31587   0.32346
 Alpha virt. eigenvalues --    0.32726   0.33117   0.33223   0.33759   0.34560
 Alpha virt. eigenvalues --    0.34735   0.35474   0.36030   0.36499   0.37190
 Alpha virt. eigenvalues --    0.38209   0.38917   0.39555   0.40651   0.41431
 Alpha virt. eigenvalues --    0.42930   0.43419   0.43652   0.44423   0.45336
 Alpha virt. eigenvalues --    0.47362   0.47813   0.49391   0.51231   0.54187
 Alpha virt. eigenvalues --    0.55605   0.56809   0.58088   0.60208   0.61816
 Alpha virt. eigenvalues --    0.63097   0.63496   0.65124   0.66123   0.66954
 Alpha virt. eigenvalues --    0.67186   0.68526   0.68880   0.69647   0.70106
 Alpha virt. eigenvalues --    0.71120   0.71644   0.72404   0.72893   0.74502
 Alpha virt. eigenvalues --    0.75081   0.75309   0.75906   0.76597   0.76746
 Alpha virt. eigenvalues --    0.77335   0.78186   0.80223   0.80650   0.80904
 Alpha virt. eigenvalues --    0.81354   0.82375   0.84139   0.84523   0.85891
 Alpha virt. eigenvalues --    0.86637   0.87080   0.88751   0.89410   0.90929
 Alpha virt. eigenvalues --    0.91773   0.93204   0.94948   0.96051   0.96244
 Alpha virt. eigenvalues --    0.97055   0.97783   0.98135   0.99066   1.00315
 Alpha virt. eigenvalues --    1.00568   1.01392   1.01801   1.02976   1.03135
 Alpha virt. eigenvalues --    1.03916   1.05763   1.06134   1.07341   1.08292
 Alpha virt. eigenvalues --    1.08834   1.09472   1.10117   1.10650   1.11704
 Alpha virt. eigenvalues --    1.13912   1.14273   1.14712   1.15226   1.16881
 Alpha virt. eigenvalues --    1.17208   1.17908   1.19739   1.19988   1.20436
 Alpha virt. eigenvalues --    1.21979   1.22703   1.23738   1.24110   1.25795
 Alpha virt. eigenvalues --    1.25998   1.27217   1.29594   1.29874   1.31038
 Alpha virt. eigenvalues --    1.32623   1.33621   1.34809   1.35804   1.36570
 Alpha virt. eigenvalues --    1.38734   1.39617   1.41055   1.41975   1.42356
 Alpha virt. eigenvalues --    1.42963   1.44106   1.44914   1.47840   1.49198
 Alpha virt. eigenvalues --    1.51766   1.53680   1.54710   1.56344   1.56915
 Alpha virt. eigenvalues --    1.58426   1.59665   1.61942   1.62433   1.66395
 Alpha virt. eigenvalues --    1.66725   1.69649   1.71940   1.72730   1.74932
 Alpha virt. eigenvalues --    1.75157   1.76749   1.78674   1.79528   1.80611
 Alpha virt. eigenvalues --    1.81267   1.82279   1.83514   1.85280   1.85931
 Alpha virt. eigenvalues --    1.86283   1.87526   1.88701   1.89561   1.91720
 Alpha virt. eigenvalues --    1.92672   1.93032   1.94439   1.95418   1.95684
 Alpha virt. eigenvalues --    1.96895   1.97943   1.98936   1.99361   1.99746
 Alpha virt. eigenvalues --    2.00479   2.00988   2.01870   2.03571   2.04620
 Alpha virt. eigenvalues --    2.05051   2.07338   2.08327   2.08789   2.10243
 Alpha virt. eigenvalues --    2.11738   2.12730   2.13571   2.14827   2.15196
 Alpha virt. eigenvalues --    2.16373   2.17005   2.17257   2.18471   2.19909
 Alpha virt. eigenvalues --    2.22015   2.24533   2.28461   2.29437   2.30625
 Alpha virt. eigenvalues --    2.31483   2.33163   2.34150   2.34484   2.35031
 Alpha virt. eigenvalues --    2.37083   2.38446   2.38796   2.40284   2.41033
 Alpha virt. eigenvalues --    2.42680   2.43415   2.43967   2.45359   2.46118
 Alpha virt. eigenvalues --    2.47107   2.48612   2.49780   2.50418   2.50769
 Alpha virt. eigenvalues --    2.51340   2.52602   2.55369   2.55700   2.56580
 Alpha virt. eigenvalues --    2.58155   2.58957   2.59222   2.60515   2.61988
 Alpha virt. eigenvalues --    2.62668   2.63637   2.64234   2.64870   2.65840
 Alpha virt. eigenvalues --    2.66969   2.67900   2.70772   2.71429   2.71802
 Alpha virt. eigenvalues --    2.72335   2.72502   2.74755   2.77075   2.77850
 Alpha virt. eigenvalues --    2.78789   2.80800   2.81301   2.82241   2.82542
 Alpha virt. eigenvalues --    2.84043   2.85663   2.86918   2.87592   2.88046
 Alpha virt. eigenvalues --    2.89820   2.91726   2.92353   2.95136   2.95811
 Alpha virt. eigenvalues --    2.96002   2.98551   3.01114   3.04840   3.06977
 Alpha virt. eigenvalues --    3.08649   3.20757   3.27342   3.28417   3.30469
 Alpha virt. eigenvalues --    3.31116   3.32987   3.34087   3.34550   3.35980
 Alpha virt. eigenvalues --    3.37014   3.38110   3.41279   3.46635   3.47203
 Alpha virt. eigenvalues --    3.49495   3.49760   3.51117   3.51639   3.52864
 Alpha virt. eigenvalues --    3.53248   3.55198   3.56907   3.60873   3.68481
 Alpha virt. eigenvalues --    3.84255   4.23432   4.32431   4.33612   4.35337
 Alpha virt. eigenvalues --    4.39956   4.41878   4.47927   4.49541   4.53190
 Alpha virt. eigenvalues --    4.54660   4.58212   4.65878   4.73091   4.77457
 Alpha virt. eigenvalues --    4.82902   4.85257   4.88402   8.54074  82.81934
          Condensed to atoms (all electrons):
               1          2          3          4          5          6
     1  C   20.593392  -2.675739  -2.298582   0.012655  -4.254582   2.141921
     2  C   -2.675739  26.278318   1.406051   0.006174 -12.416001   0.042032
     3  C   -2.298582   1.406051   6.656226   0.245575  -1.780016  -0.297788
     4  H    0.012655   0.006174   0.245575   0.544441  -0.013457   0.042391
     5  C   -4.254582 -12.416001  -1.780016  -0.013457  52.963257   2.324535
     6  C    2.141921   0.042032  -0.297788   0.042391   2.324535   8.509148
     7  H    0.003795  -0.009019   0.058065  -0.004641   0.054847   0.237048
     8  C  -10.420002  -7.976267   2.858234   0.011806  -8.038676  -5.277598
     9  H   -0.000185   0.000932  -0.006813  -0.000175   0.110325   0.093200
    10  C    3.805004   1.340618  -0.900866   0.011173 -23.833583  -1.578268
    11  H    0.004544  -0.107008  -0.001574  -0.000000  -0.104026   0.047059
    12  H    0.002228   0.128764   0.002568  -0.000000   0.412217   0.015365
    13  N    0.150258   0.162330  -0.026022  -0.000045   0.031128   0.098368
    14  C    0.166840   0.373149  -0.014441  -0.000021  -0.714330   0.008459
    15  H   -0.000196  -0.033127   0.000887  -0.000000  -0.004533   0.011449
    16  H    0.000824   0.014010  -0.000361  -0.000000  -0.025643  -0.001415
    17  H   -0.001732   0.061925   0.000447   0.000000  -0.131045  -0.029940
    18  Se  -0.939392   0.097984  -0.002379  -0.000627   0.364097  -0.012830
    19  C    0.200383   0.641013  -0.015712   0.000005  -1.649684   0.013075
    20  C   -0.135607  -0.423758   0.012512  -0.000001   0.826424  -0.018300
    21  C    0.049338   0.236542  -0.005115   0.000000  -0.407825   0.004762
    22  C   -0.040508  -0.266124   0.002454   0.000001  -0.069085  -0.011558
    23  C    0.011164   0.146349  -0.001362   0.000003  -0.204995   0.019231
    24  C   -0.144095  -0.560034   0.009835  -0.000030   1.594648  -0.064923
    25  H    0.000253  -0.006122   0.000278   0.000000  -0.002071  -0.000276
    26  H    0.000013   0.001028  -0.000002   0.000000   0.001482   0.000038
    27  H    0.000432   0.001974  -0.000030   0.000000  -0.009577   0.000031
    28  H   -0.000056   0.000381  -0.000001   0.000000   0.002828   0.000017
    29  H   -0.000000  -0.000132   0.000002  -0.000000   0.002519   0.000003
    30  H    0.000054   0.000241   0.000004  -0.000000   0.003766  -0.000136
    31  H   -0.000171   0.001462   0.000087   0.000000   0.056631   0.000097
    32  H    0.000413  -0.004274  -0.000025   0.000000  -0.048609   0.000663
    33  H    0.000001   0.000955   0.000002  -0.000000   0.000763  -0.000016
    34  H   -0.000782   0.005942   0.000035  -0.000000  -0.013073  -0.000386
    35  H    0.000886   0.006930  -0.000057   0.000000   0.054703   0.001240
    36  H    0.006140  -0.065182  -0.002701   0.000000  -0.064899   0.004910
    37  O    0.036500  -0.013451  -0.001200   0.000000  -0.145149   0.002294
    38  O   -0.142437  -0.100894   0.004972  -0.000006   0.295550  -0.005355
    39  H   -0.002131  -0.024373  -0.000344   0.000000   0.001879  -0.000068
    40  H   -0.003028  -0.004944   0.000177   0.000000   0.006360  -0.000106
    41  H    0.136351   0.093299   0.017388  -0.004940   0.057765  -0.005628
               7          8          9         10         11         12
     1  C    0.003795 -10.420002  -0.000185   3.805004   0.004544   0.002228
     2  C   -0.009019  -7.976267   0.000932   1.340618  -0.107008   0.128764
     3  C    0.058065   2.858234  -0.006813  -0.900866  -0.001574   0.002568
     4  H   -0.004641   0.011806  -0.000175   0.011173  -0.000000  -0.000000
     5  C    0.054847  -8.038676   0.110325 -23.833583  -0.104026   0.412217
     6  C    0.237048  -5.277598   0.093200  -1.578268   0.047059   0.015365
     7  H    0.544553  -0.021197  -0.004824  -0.006815  -0.000008   0.000003
     8  C   -0.021197  36.700575   0.062285  -2.302159   0.216035  -0.138757
     9  H   -0.004824   0.062285   0.572759   0.028536   0.004098   0.000193
    10  C   -0.006815  -2.302159   0.028536  30.299721   0.291343  -0.052967
    11  H   -0.000008   0.216035   0.004098   0.291343   0.554414  -0.029266
    12  H    0.000003  -0.138757   0.000193  -0.052967  -0.029266   0.499943
    13  N   -0.000019  -0.045908   0.003989  -0.481667   0.010851  -0.048841
    14  C    0.000008  -0.416783   0.007161   0.459835  -0.004060   0.006438
    15  H    0.000000   0.059894  -0.000073  -0.074396   0.002238   0.000015
    16  H   -0.000000  -0.015591   0.000003   0.045845   0.000062  -0.000150
    17  H   -0.000007  -0.031807  -0.000302   0.150486  -0.001011   0.000111
    18  Se  -0.000167   0.594571  -0.002444  -0.214737   0.000803   0.006728
    19  C   -0.000001  -0.290794  -0.000268   1.248249   0.022767  -0.044109
    20  C    0.000001   0.186882   0.000284  -0.523213  -0.016115   0.009082
    21  C   -0.000002  -0.120569  -0.000096   0.241697   0.012715  -0.004621
    22  C    0.000005   0.174454   0.000627   0.105151  -0.037566  -0.006674
    23  C   -0.000017  -0.006366  -0.000950   0.170054   0.077544  -0.033581
    24  C    0.000004   0.200781   0.001703  -1.313954  -0.105513   0.073849
    25  H   -0.000000  -0.000353  -0.000000  -0.001905   0.000019  -0.000221
    26  H   -0.000000   0.000628  -0.000000  -0.001903   0.000004  -0.000052
    27  H    0.000000  -0.000176   0.000000   0.007375  -0.000004   0.000035
    28  H    0.000000  -0.000246   0.000000   0.006951   0.000005  -0.000068
    29  H   -0.000000   0.000068   0.000000  -0.000817  -0.000003  -0.000000
    30  H    0.000000  -0.000699   0.000000  -0.001747   0.000157   0.000085
    31  H   -0.000000  -0.003924   0.000003  -0.035042   0.000105  -0.001600
    32  H    0.000000   0.014437  -0.000003   0.010715  -0.000742   0.000238
    33  H   -0.000000  -0.001321   0.000000  -0.002920   0.000034  -0.000015
    34  H    0.000000  -0.005795   0.000000   0.048587  -0.000062  -0.000177
    35  H   -0.000000   0.002356  -0.000000  -0.072493   0.000119   0.003492
    36  H    0.000000   0.041131  -0.000012   0.006094   0.004657  -0.005423
    37  O   -0.000000  -0.022401  -0.000007   0.123613   0.000014  -0.000255
    38  O    0.000000   0.087134  -0.000042  -0.129325  -0.000663  -0.000278
    39  H   -0.000000   0.002180  -0.000000   0.010892   0.000002  -0.000025
    40  H   -0.000000   0.001050   0.000000  -0.001025  -0.000000   0.000000
    41  H   -0.000148   0.016072   0.000015  -0.011708   0.000002  -0.000002
              13         14         15         16         17         18
     1  C    0.150258   0.166840  -0.000196   0.000824  -0.001732  -0.939392
     2  C    0.162330   0.373149  -0.033127   0.014010   0.061925   0.097984
     3  C   -0.026022  -0.014441   0.000887  -0.000361   0.000447  -0.002379
     4  H   -0.000045  -0.000021  -0.000000  -0.000000   0.000000  -0.000627
     5  C    0.031128  -0.714330  -0.004533  -0.025643  -0.131045   0.364097
     6  C    0.098368   0.008459   0.011449  -0.001415  -0.029940  -0.012830
     7  H   -0.000019   0.000008   0.000000  -0.000000  -0.000007  -0.000167
     8  C   -0.045908  -0.416783   0.059894  -0.015591  -0.031807   0.594571
     9  H    0.003989   0.007161  -0.000073   0.000003  -0.000302  -0.002444
    10  C   -0.481667   0.459835  -0.074396   0.045845   0.150486  -0.214737
    11  H    0.010851  -0.004060   0.002238   0.000062  -0.001011   0.000803
    12  H   -0.048841   0.006438   0.000015  -0.000150   0.000111   0.006728
    13  N    8.037664  -0.008875  -0.004204  -0.050188  -0.082246  -0.003848
    14  C   -0.008875   5.492254   0.407923   0.430513   0.405172   0.033334
    15  H   -0.004204   0.407923   0.527782  -0.024444  -0.025588  -0.000548
    16  H   -0.050188   0.430513  -0.024444   0.440281  -0.017079   0.000257
    17  H   -0.082246   0.405172  -0.025588  -0.017079   0.478099   0.000933
    18  Se  -0.003848   0.033334  -0.000548   0.000257   0.000933  34.310720
    19  C    0.116181   0.063551  -0.005713   0.014282  -0.000303   0.119854
    20  C    0.024248  -0.040873  -0.001688   0.000381   0.000972  -0.028399
    21  C   -0.004534   0.024140  -0.000297   0.000587  -0.000046   0.003653
    22  C   -0.003733   0.007255   0.003076   0.000014   0.000167  -0.006957
    23  C    0.112925  -0.007466   0.011293   0.004631  -0.007876   0.004816
    24  C   -0.642492  -0.296613  -0.022971  -0.048014   0.027022  -0.152381
    25  H   -0.012841   0.002168  -0.000001   0.000034   0.000001   0.007274
    26  H    0.008705   0.000587  -0.000001  -0.000007   0.000003   0.001597
    27  H   -0.003262  -0.000016   0.000000   0.000000  -0.000000  -0.001941
    28  H   -0.000474  -0.000293  -0.000000  -0.000000  -0.000000  -0.000128
    29  H    0.001004   0.000772   0.000000   0.000000  -0.000000   0.000212
    30  H    0.000391  -0.000538   0.000005  -0.000000  -0.000000   0.000032
    31  H   -0.003131   0.002559  -0.000001   0.000001   0.000002   0.001260
    32  H    0.039474   0.000131   0.002376   0.000033  -0.000040  -0.000310
    33  H    0.000257   0.007879  -0.000165   0.000021   0.000003   0.000194
    34  H   -0.052683   0.003509  -0.001563   0.003940   0.000492   0.000445
    35  H    0.017513   0.003345   0.000002   0.000000   0.000000   0.004998
    36  H    0.215402  -0.008963   0.004086  -0.004281  -0.001845   0.032442
    37  O   -0.021101   0.029361   0.001278  -0.008459   0.002158   0.061117
    38  O   -0.099425   0.001419   0.000067   0.004245  -0.000783  -0.074351
    39  H    0.006746   0.002447   0.000002   0.000031  -0.000003   0.036550
    40  H   -0.007868   0.005970  -0.000012   0.000014   0.000001   0.002960
    41  H   -0.000078  -0.000207  -0.000000  -0.000000  -0.000003   0.005093
              19         20         21         22         23         24
     1  C    0.200383  -0.135607   0.049338  -0.040508   0.011164  -0.144095
     2  C    0.641013  -0.423758   0.236542  -0.266124   0.146349  -0.560034
     3  C   -0.015712   0.012512  -0.005115   0.002454  -0.001362   0.009835
     4  H    0.000005  -0.000001   0.000000   0.000001   0.000003  -0.000030
     5  C   -1.649684   0.826424  -0.407825  -0.069085  -0.204995   1.594648
     6  C    0.013075  -0.018300   0.004762  -0.011558   0.019231  -0.064923
     7  H   -0.000001   0.000001  -0.000002   0.000005  -0.000017   0.000004
     8  C   -0.290794   0.186882  -0.120569   0.174454  -0.006366   0.200781
     9  H   -0.000268   0.000284  -0.000096   0.000627  -0.000950   0.001703
    10  C    1.248249  -0.523213   0.241697   0.105151   0.170054  -1.313954
    11  H    0.022767  -0.016115   0.012715  -0.037566   0.077544  -0.105513
    12  H   -0.044109   0.009082  -0.004621  -0.006674  -0.033581   0.073849
    13  N    0.116181   0.024248  -0.004534  -0.003733   0.112925  -0.642492
    14  C    0.063551  -0.040873   0.024140   0.007255  -0.007466  -0.296613
    15  H   -0.005713  -0.001688  -0.000297   0.003076   0.011293  -0.022971
    16  H    0.014282   0.000381   0.000587   0.000014   0.004631  -0.048014
    17  H   -0.000303   0.000972  -0.000046   0.000167  -0.007876   0.027022
    18  Se   0.119854  -0.028399   0.003653  -0.006957   0.004816  -0.152381
    19  C    7.729447  -0.134616   0.062156  -0.283306  -0.083933  -1.794825
    20  C   -0.134616   6.186194  -0.149517   0.027261  -0.255831  -0.041471
    21  C    0.062156  -0.149517   5.709737   0.083170   0.058705  -0.076666
    22  C   -0.283306   0.027261   0.083170   5.804080   0.001047   0.029635
    23  C   -0.083933  -0.255831   0.058705   0.001047   7.060679  -1.259126
    24  C   -1.794825  -0.041471  -0.076666   0.029635  -1.259126  10.101449
    25  H    0.385539  -0.005028   0.007710  -0.003376   0.001504  -0.053415
    26  H    0.356473  -0.079050   0.024019  -0.014544   0.007041   0.011277
    27  H   -0.052984   0.300655  -0.001377   0.028131   0.004282   0.057335
    28  H    0.048757  -0.058150   0.378121  -0.062580   0.047752  -0.031216
    29  H   -0.009986  -0.087134   0.461954  -0.084574   0.007870   0.016823
    30  H   -0.000313   0.038021  -0.030191   0.343793  -0.062921   0.040281
    31  H   -0.016687  -0.025131   0.006002   0.330012  -0.042372   0.040986
    32  H   -0.003222  -0.006698   0.012959   0.023582   0.359475  -0.083413
    33  H   -0.014522   0.000644   0.003908  -0.063052   0.400308  -0.009010
    34  H    0.103880   0.023777  -0.004945   0.006801  -0.056858   0.226006
    35  H   -0.084196   0.337746   0.014475  -0.022878  -0.006796   0.054436
    36  H   -0.006597  -0.018546   0.005516  -0.004499   0.019560   0.001692
    37  O    0.057437  -0.009822  -0.000548   0.001502  -0.006296  -0.066236
    38  O   -0.128809   0.024179  -0.005896   0.008346   0.032891   0.074081
    39  H    0.011968   0.000411  -0.000495  -0.000067  -0.001060  -0.018934
    40  H   -0.003568   0.000000   0.000010   0.000039   0.000020   0.006150
    41  H    0.000122  -0.000024   0.000007  -0.000006   0.000002  -0.000236
              25         26         27         28         29         30
     1  C    0.000253   0.000013   0.000432  -0.000056  -0.000000   0.000054
     2  C   -0.006122   0.001028   0.001974   0.000381  -0.000132   0.000241
     3  C    0.000278  -0.000002  -0.000030  -0.000001   0.000002   0.000004
     4  H    0.000000   0.000000   0.000000   0.000000  -0.000000  -0.000000
     5  C   -0.002071   0.001482  -0.009577   0.002828   0.002519   0.003766
     6  C   -0.000276   0.000038   0.000031   0.000017   0.000003  -0.000136
     7  H   -0.000000  -0.000000   0.000000   0.000000  -0.000000   0.000000
     8  C   -0.000353   0.000628  -0.000176  -0.000246   0.000068  -0.000699
     9  H   -0.000000  -0.000000   0.000000   0.000000   0.000000   0.000000
    10  C   -0.001905  -0.001903   0.007375   0.006951  -0.000817  -0.001747
    11  H    0.000019   0.000004  -0.000004   0.000005  -0.000003   0.000157
    12  H   -0.000221  -0.000052   0.000035  -0.000068  -0.000000   0.000085
    13  N   -0.012841   0.008705  -0.003262  -0.000474   0.001004   0.000391
    14  C    0.002168   0.000587  -0.000016  -0.000293   0.000772  -0.000538
    15  H   -0.000001  -0.000001   0.000000  -0.000000   0.000000   0.000005
    16  H    0.000034  -0.000007   0.000000  -0.000000   0.000000  -0.000000
    17  H    0.000001   0.000003  -0.000000  -0.000000  -0.000000  -0.000000
    18  Se   0.007274   0.001597  -0.001941  -0.000128   0.000212   0.000032
[...]
    13  N    8.355515  -0.026397  -0.018810  -0.052488  -0.086756   0.012087
    14  C   -0.026397   5.474501   0.412266   0.441450   0.398716  -0.000915
    15  H   -0.018810   0.412266   0.548033  -0.025347  -0.028114   0.000039
    16  H   -0.052488   0.441450  -0.025347   0.437103  -0.018178   0.000459
    17  H   -0.086756   0.398716  -0.028114  -0.018178   0.503353   0.000196
    18  Se   0.012087  -0.000915   0.000039   0.000459   0.000196  33.911803
    19  C   -0.004802  -0.053265  -0.002770   0.008301  -0.002336  -0.039847
    20  C    0.071227   0.010290  -0.002420   0.000972   0.001821   0.042234
    21  C   -0.036486  -0.003985   0.000009   0.000342  -0.000301  -0.008537
    22  C    0.031224   0.032757   0.003497   0.000279   0.000581  -0.002620
    23  C    0.066720  -0.016156   0.001630   0.006085  -0.007340   0.016544
    24  C   -0.501980  -0.284208  -0.014107  -0.047104   0.025287  -0.071482
    25  H   -0.002358   0.001189  -0.000005   0.000026  -0.000001   0.005049
    26  H    0.010821   0.000804   0.000000  -0.000010   0.000003   0.001893
    27  H   -0.002657  -0.000020   0.000000   0.000000  -0.000000  -0.001896
    28  H   -0.000647  -0.000264   0.000000  -0.000000  -0.000000  -0.000118
    29  H    0.000557   0.000725  -0.000000   0.000000   0.000000   0.000149
    30  H    0.000729  -0.000343   0.000006  -0.000000  -0.000000   0.000065
    31  H   -0.005685   0.002164  -0.000003   0.000000   0.000002   0.001195
    32  H    0.037262   0.000077   0.003033   0.000027  -0.000067  -0.000264
    33  H    0.002773   0.007580  -0.000199   0.000014   0.000003   0.000062
    34  H   -0.065671  -0.002497  -0.001496   0.003154   0.000454  -0.000883
    35  H    0.012877   0.002961   0.000002  -0.000000   0.000000   0.004055
    36  H    0.070755  -0.002676   0.002645  -0.003577  -0.002383  -0.017518
    37  O   -0.018502  -0.000768   0.001483  -0.009651   0.001483  -0.015033
    38  O   -0.048214   0.023635  -0.000522   0.000486  -0.000548  -0.006324
    39  H    0.000566  -0.001530  -0.000020   0.000573   0.000035   0.004385
    40  H   -0.006275   0.007083  -0.000010  -0.000001  -0.000042   0.002526
    41  H    0.000116  -0.000216  -0.000000   0.000000  -0.000002   0.003014
              19         20         21         22         23         24
     1  C    0.174061  -0.110564   0.045598  -0.039486  -0.011037  -0.036147
     2  C    0.562505  -0.311454   0.200916  -0.301520   0.054407  -0.371478
     3  C   -0.025802   0.016043  -0.005518   0.001947   0.004189  -0.007220
     4  H    0.000001   0.000002   0.000000   0.000000   0.000001   0.000005
     5  C   -1.014955   0.466724  -0.303501  -0.112719   0.056709   0.686292
     6  C    0.034959  -0.028541   0.008880  -0.011186   0.002156  -0.025195
     7  H    0.000003  -0.000001  -0.000002   0.000007  -0.000012  -0.000025
     8  C   -0.298146   0.145991  -0.086587   0.164215   0.044586   0.115831
     9  H    0.000065   0.000137   0.000027   0.000319  -0.001032   0.003093
    10  C    0.836439  -0.281015   0.164357   0.159955   0.000720  -0.915824
    11  H    0.013951  -0.011767   0.011744  -0.035015   0.063936  -0.084404
    12  H   -0.029346   0.001351  -0.004528  -0.007132  -0.032437   0.054910
    13  N   -0.004802   0.071227  -0.036486   0.031224   0.066720  -0.501980
    14  C   -0.053265   0.010290  -0.003985   0.032757  -0.016156  -0.284208
    15  H   -0.002770  -0.002420   0.000009   0.003497   0.001630  -0.014107
    16  H    0.008301   0.000972   0.000342   0.000279   0.006085  -0.047104
    17  H   -0.002336   0.001821  -0.000301   0.000581  -0.007340   0.025287
    18  Se  -0.039847   0.042234  -0.008537  -0.002620   0.016544  -0.071482
    19  C    7.346599   0.019839  -0.051265  -0.111654  -0.337888  -1.117595
    20  C    0.019839   6.055760  -0.060689  -0.062286  -0.123743  -0.325767
    21  C   -0.051265  -0.060689   5.608283   0.159817  -0.025195   0.111731
    22  C   -0.111654  -0.062286   0.159817   5.753764   0.053815  -0.164159
    23  C   -0.337888  -0.123743  -0.025195   0.053815   6.961620  -0.931943
    24  C   -1.117595  -0.325767   0.111731  -0.164159  -0.931943   9.351615
    25  H    0.382846   0.002044   0.005577  -0.000060  -0.003195  -0.056617
    26  H    0.335850  -0.070117   0.017707  -0.013646   0.011598   0.020394
    27  H   -0.061389   0.310606  -0.002591   0.029857   0.003998   0.056464
    28  H    0.047043  -0.055955   0.377884  -0.065420   0.046993  -0.028843
    29  H   -0.003487  -0.092114   0.467278  -0.089451   0.009715   0.012640
    30  H    0.000028   0.038861  -0.033111   0.348528  -0.063612   0.039470
    31  H   -0.018637  -0.024784   0.005256   0.329618  -0.048144   0.045460
    32  H   -0.007395  -0.005444   0.013133   0.018162   0.369271  -0.084737
    33  H   -0.013998   0.000688   0.002644  -0.060048   0.404426  -0.017961
    34  H    0.099494   0.021177  -0.003303   0.005640  -0.072763   0.264008
    35  H   -0.086448   0.336680   0.009775  -0.023766  -0.006299   0.059122
    36  H   -0.030803  -0.000142  -0.001653   0.004594   0.015135   0.021972
    37  O    0.030525  -0.003055  -0.000229   0.002819  -0.006892  -0.044597
    38  O   -0.079140   0.027780  -0.013142   0.013630   0.016064  -0.032815
    39  H    0.000036   0.000316   0.000022  -0.000441  -0.001143   0.005135
    40  H   -0.003011  -0.000068  -0.000005   0.000010  -0.000259   0.004572
    41  H    0.000097  -0.000001   0.000010  -0.000005  -0.000009  -0.000067
              25         26         27         28         29         30
     1  C   -0.002007  -0.000060   0.000260  -0.000059   0.000010   0.000073
     2  C   -0.013618   0.000053   0.000731   0.000361   0.000167   0.000490
     3  C    0.000281   0.000007  -0.000034  -0.000000   0.000002   0.000003
     4  H    0.000000   0.000000   0.000000   0.000000  -0.000000  -0.000000
     5  C    0.013964   0.002810  -0.008737   0.002946   0.001853   0.002325
     6  C   -0.000338   0.000020   0.000026   0.000015   0.000001  -0.000173
     7  H   -0.000000  -0.000000   0.000000   0.000000  -0.000000   0.000000
     8  C    0.001516   0.000684  -0.000054  -0.000279  -0.000034  -0.000778
     9  H    0.000000  -0.000000  -0.000000   0.000000   0.000000   0.000000
    10  C   -0.010726  -0.003372   0.006115   0.006712   0.000620  -0.002702
    11  H   -0.000002   0.000004  -0.000005   0.000005  -0.000003   0.000174
    12  H   -0.000136  -0.000039   0.000038  -0.000067   0.000001   0.000082
    13  N   -0.002358   0.010821  -0.002657  -0.000647   0.000557   0.000729
    14  C    0.001189   0.000804  -0.000020  -0.000264   0.000725  -0.000343
    15  H   -0.000005   0.000000   0.000000   0.000000  -0.000000   0.000006
    16  H    0.000026  -0.000010   0.000000  -0.000000   0.000000  -0.000000
    17  H   -0.000001   0.000003  -0.000000  -0.000000   0.000000  -0.000000
    18  Se   0.005049   0.001893  -0.001896  -0.000118   0.000149   0.000065
    19  C    0.382846   0.335850  -0.061389   0.047043  -0.003487   0.000028
    20  C    0.002044  -0.070117   0.310606  -0.055955  -0.092114   0.038861
    21  C    0.005577   0.017707  -0.002591   0.377884   0.467278  -0.033111
    22  C   -0.000060  -0.013646   0.029857  -0.065420  -0.089451   0.348528
    23  C   -0.003195   0.011598   0.003998   0.046993   0.009715  -0.063612
    24  C   -0.056617   0.020394   0.056464  -0.028843   0.012640   0.039470
    25  H    0.501085  -0.021902  -0.002334  -0.000125  -0.000005   0.000009
    26  H   -0.021902   0.545269  -0.005586  -0.000028   0.002985  -0.000038
    27  H   -0.002334  -0.005586   0.553635  -0.002399  -0.004566  -0.000145
    28  H   -0.000125  -0.000028  -0.002399   0.557354  -0.028434  -0.002333
    29  H   -0.000005   0.002985  -0.004566  -0.028434   0.557071  -0.004773
    30  H    0.000009  -0.000038  -0.000145  -0.002333  -0.004773   0.558200
    31  H   -0.000010   0.000080  -0.000009  -0.004893   0.005114  -0.028608
    32  H   -0.000126  -0.000068   0.000009  -0.000139  -0.000047  -0.002182
    33  H   -0.000047   0.001107  -0.000028  -0.000031   0.002818  -0.005733
    34  H   -0.001490  -0.008814  -0.000122   0.000012  -0.000095  -0.000127
    35  H   -0.003672   0.005009  -0.026474  -0.004629   0.004959  -0.000048
    36  H    0.005014   0.000037  -0.000005  -0.000001  -0.000001   0.000002
    37  O   -0.000119   0.000100  -0.000006  -0.000000   0.000001  -0.000000
    38  O    0.003971   0.000264   0.000036  -0.000001   0.000005  -0.000003
    39  H    0.000370   0.000001  -0.000000  -0.000000  -0.000000   0.000000
    40  H    0.000020   0.000000   0.000000  -0.000000   0.000000  -0.000000
    41  H    0.000000   0.000000  -0.000000   0.000000  -0.000000   0.000000
              31         32         33         34         35         36
     1  C   -0.000346   0.000281  -0.000024  -0.000900   0.002305  -0.060110
     2  C    0.002756  -0.005273   0.000543   0.004897   0.009948  -0.405874
     3  C    0.000104   0.000008   0.000002  -0.000033  -0.000027  -0.004707
     4  H    0.000000   0.000000  -0.000000  -0.000000  -0.000000   0.000000
     5  C    0.061539  -0.046264   0.000271  -0.004223   0.047795   0.398072
     6  C    0.000192   0.000632   0.000009  -0.000138   0.001209   0.007296
     7  H   -0.000000   0.000000  -0.000000   0.000000  -0.000000   0.000000
     8  C   -0.006255   0.015862  -0.001211  -0.005949   0.000703   0.083348
     9  H    0.000002  -0.000003   0.000000   0.000001   0.000000   0.000025
    10  C   -0.033935   0.009568  -0.003038   0.046329  -0.065821  -0.106029
    11  H   -0.000043  -0.000233   0.000008  -0.000096   0.000117   0.002043
    12  H   -0.001390   0.000256  -0.000012  -0.000126   0.003998  -0.002928
    13  N   -0.005685   0.037262   0.002773  -0.065671   0.012877   0.070755
    14  C    0.002164   0.000077   0.007580  -0.002497   0.002961  -0.002676
    15  H   -0.000003   0.003033  -0.000199  -0.001496   0.000002   0.002645
    16  H    0.000000   0.000027   0.000014   0.003154  -0.000000  -0.003577
    17  H    0.000002  -0.000067   0.000003   0.000454   0.000000  -0.002383
    18  Se   0.001195  -0.000264   0.000062  -0.000883   0.004055  -0.017518
    19  C   -0.018637  -0.007395  -0.013998   0.099494  -0.086448  -0.030803
    20  C   -0.024784  -0.005444   0.000688   0.021177   0.336680  -0.000142
    21  C    0.005256   0.013133   0.002644  -0.003303   0.009775  -0.001653
    22  C    0.329618   0.018162  -0.060048   0.005640  -0.023766   0.004594
    23  C   -0.048144   0.369271   0.404426  -0.072763  -0.006299   0.015135
    24  C    0.045460  -0.084737  -0.017961   0.264008   0.059122   0.021972
    25  H   -0.000010  -0.000126  -0.000047  -0.001490  -0.003672   0.005014
    26  H    0.000080  -0.000068   0.001107  -0.008814   0.005009   0.000037
    27  H   -0.000009   0.000009  -0.000028  -0.000122  -0.026474  -0.000005
    28  H   -0.004893  -0.000139  -0.000031   0.000012  -0.004629  -0.000001
    29  H    0.005114  -0.000047   0.002818  -0.000095   0.004959  -0.000001
    30  H   -0.028608  -0.002182  -0.005733  -0.000127  -0.000048   0.000002
    31  H    0.563850  -0.004206   0.004833  -0.000143   0.002590  -0.000023
    32  H   -0.004206   0.563858  -0.025445  -0.001168  -0.000020  -0.000060
    33  H    0.004833  -0.025445   0.533438  -0.007098   0.000057  -0.000049
    34  H   -0.000143  -0.001168  -0.007098   0.555394  -0.000156  -0.003063
    35  H    0.002590  -0.000020   0.000057  -0.000156   0.555607   0.000007
    36  H   -0.000023  -0.000060  -0.000049  -0.003063   0.000007   0.365781
    37  O    0.000001  -0.000003   0.000002   0.002126   0.000009   0.012181
    38  O    0.000036   0.000020   0.000036  -0.000155   0.000089   0.172176
    39  H   -0.000000   0.000000  -0.000000  -0.000051   0.000000  -0.003686
    40  H    0.000000  -0.000000   0.000000   0.000012   0.000000   0.000025
    41  H   -0.000000   0.000000   0.000000   0.000000   0.000000   0.000015
              37         38         39         40         41
     1  C    0.025887   0.022390   0.006584   0.000648   0.141997
     2  C    0.003470  -0.326554  -0.000810  -0.011381   0.093974
     3  C   -0.007560  -0.010983   0.000669   0.000267   0.025141
     4  H    0.000000  -0.000018  -0.000000  -0.000000  -0.004643
     5  C   -0.077423   0.332254  -0.007257   0.008769   0.049137
     6  C    0.003965   0.014632  -0.000302  -0.000018  -0.008627
     7  H    0.000000  -0.000001   0.000000  -0.000000  -0.000148
     8  C   -0.024958   0.053779  -0.001314   0.000798   0.013636
     9  H   -0.000002  -0.000015  -0.000000   0.000000   0.000014
    10  C    0.098224  -0.095866  -0.001685  -0.003162  -0.008192
    11  H    0.000002  -0.001362   0.000003  -0.000000   0.000002
    12  H   -0.000045  -0.000271  -0.000007  -0.000000  -0.000002
    13  N   -0.018502  -0.048214   0.000566  -0.006275   0.000116
    14  C   -0.000768   0.023635  -0.001530   0.007083  -0.000216
    15  H    0.001483  -0.000522  -0.000020  -0.000010  -0.000000
    16  H   -0.009651   0.000486   0.000573  -0.000001   0.000000
    17  H    0.001483  -0.000548   0.000035  -0.000042  -0.000002
    18  Se  -0.015033  -0.006324   0.004385   0.002526   0.003014
    19  C    0.030525  -0.079140   0.000036  -0.003011   0.000097
    20  C   -0.003055   0.027780   0.000316  -0.000068  -0.000001
    21  C   -0.000229  -0.013142   0.000022  -0.000005   0.000010
    22  C    0.002819   0.013630  -0.000441   0.000010  -0.000005
    23  C   -0.006892   0.016064  -0.001143  -0.000259  -0.000009
    24  C   -0.044597  -0.032815   0.005135   0.004572  -0.000067
    25  H   -0.000119   0.003971   0.000370   0.000020   0.000000
    26  H    0.000100   0.000264   0.000001   0.000000   0.000000
    27  H   -0.000006   0.000036  -0.000000   0.000000  -0.000000
    28  H   -0.000000  -0.000001  -0.000000  -0.000000   0.000000
    29  H    0.000001   0.000005  -0.000000   0.000000  -0.000000
    30  H   -0.000000  -0.000003   0.000000  -0.000000   0.000000
    31  H    0.000001   0.000036  -0.000000   0.000000  -0.000000
    32  H   -0.000003   0.000020   0.000000  -0.000000   0.000000
    33  H    0.000002   0.000036  -0.000000   0.000000   0.000000
    34  H    0.002126  -0.000155  -0.000051   0.000012   0.000000
    35  H    0.000009   0.000089   0.000000   0.000000   0.000000
    36  H    0.012181   0.172176  -0.003686   0.000025   0.000015
    37  O    8.329844  -0.060862   0.233370   0.264448  -0.000012
    38  O   -0.060862   8.601044   0.037638   0.006294  -0.000452
    39  H    0.233370   0.037638   0.289374  -0.017964  -0.000001
    40  H    0.264448   0.006294  -0.017964   0.399144   0.000000
    41  H   -0.000012  -0.000452  -0.000001   0.000000   0.526750
 Mulliken charges:
               1
     1  C   -0.360792
     2  C   -0.465407
     3  C    0.028815
     4  H    0.156364
     5  C    0.702372
     6  C   -0.322549
     7  H    0.155621
     8  C   -0.024921
     9  H    0.140330
    10  C   -0.668885
    11  H    0.152375
    12  H    0.189535
    13  N   -0.603945
    14  C   -0.392420
    15  H    0.155393
    16  H    0.241330
    17  H    0.185094
    18  Se   0.182866
    19  C   -0.498663
    20  C   -0.000617
    21  C   -0.570363
    22  C   -0.014421
    23  C   -0.521217
    24  C    0.286275
    25  H    0.195932
    26  H    0.166182
    27  H    0.157281
    28  H    0.155341
    29  H    0.156340
    30  H    0.155667
    31  H    0.152323
    32  H    0.151683
    33  H    0.173611
    34  H    0.177860
    35  H    0.157486
    36  H    0.484167
    37  O   -0.740222
    38  O   -0.649010
    39  H    0.457134
    40  H    0.347580
    41  H    0.168473
 Sum of Mulliken charges =  -0.00000
 Mulliken charges with hydrogens summed into heavy atoms:
               1
     1  C   -0.192319
     2  C   -0.465407
     3  C    0.185179
     5  C    0.702372
     6  C   -0.166928
     8  C    0.115409
    10  C   -0.326974
    13  N   -0.119779
    14  C    0.189397
    18  Se   0.182866
    19  C   -0.136549
    20  C    0.314150
    21  C   -0.258681
    22  C    0.293570
    23  C   -0.195923
    24  C    0.464135
    37  O    0.064491
    38  O   -0.649010
 APT charges:
               1
     1  C   -0.223261
     2  C   -1.381398
     3  C   -0.427178
     4  H    0.979050
     5  C   -0.325912
     6  C   -0.528502
     7  H    0.935246
     8  C   -0.480674
     9  H    0.501917
    10  C   -0.494885
    11  H    0.496967
    12  H    0.316230
    13  N   -0.129844
    14  C   -1.516212
    15  H    0.554388
    16  H    0.531668
    17  H    0.317846
    18  Se   0.209375
    19  C   -0.890667
    20  C   -0.302558
    21  C   -1.733178
    22  C   -0.659785
    23  C   -1.313028
    24  C   -0.323079
    25  H    0.179440
    26  H    0.686461
    27  H    0.651075
    28  H    0.624508
    29  H    0.679261
    30  H    0.849625
    31  H    0.082882
    32  H    0.367904
    33  H    0.734169
    34  H    0.559720
    35  H    0.063136
    36  H    0.459375
    37  O   -0.842873
    38  O   -0.601941
    39  H    0.061845
    40  H    0.728060
    41  H    0.604827
 Sum of APT charges =  -0.00000
 APT charges with hydrogens summed into heavy atoms:
               1
     1  C    0.381566
     2  C   -1.381398
     3  C    0.551872
     5  C   -0.325912
     6  C    0.406744
     8  C    0.021243
    10  C    0.318313
    13  N    0.329531
    14  C   -0.112310
    18  Se   0.209375
    19  C   -0.024766
    20  C    0.411653
    21  C   -0.429410
    22  C    0.272722
    23  C   -0.210955
    24  C    0.236641
    37  O   -0.052967
    38  O   -0.601941
 Electronic spatial extent (au):  <R**2>=           5665.8426
 Charge=             -0.0000 electrons
 Dipole moment (field-independent basis, Debye):
    X=             -1.5186    Y=              5.6801    Z=             -0.5633  Tot=              5.9065
 Quadrupole moment (field-independent basis, Debye-Ang):
   XX=           -108.1482   YY=           -127.7961   ZZ=           -127.6120
   XY=              0.3079   XZ=              2.4356   YZ=              9.9908
 Traceless Quadrupole moment (field-independent basis, Debye-Ang):
   XX=             13.0373   YY=             -6.6107   ZZ=             -6.4266
   XY=              0.3079   XZ=              2.4356   YZ=              9.9908
 Octapole moment (field-independent basis, Debye-Ang**2):
  XXX=             86.4294  YYY=            -54.0379  ZZZ=            -53.1840  XYY=             32.5342
  XXY=            -18.8590  XXZ=            -10.0139  XZZ=             27.4720  YZZ=            -13.1641
  YYZ=            -24.4334  XYZ=             -8.6783
 Hexadecapole moment (field-independent basis, Debye-Ang**3):
 XXXX=          -4116.1592 YYYY=          -1777.5606 ZZZZ=          -1311.0938 XXXY=             13.3117
 XXXZ=            -49.5983 YYYX=            -32.7204 YYYZ=             93.8925 ZZZX=             33.3417
 ZZZY=             58.0910 XXYY=           -989.0879 XXZZ=           -957.8606 YYZZ=           -563.6867
 XXYZ=             14.8150 YYXZ=             52.8837 ZZXY=            -73.7649
 N-N= 1.920945327080D+03 E-N=-1.131845594965D+04  KE= 3.133874951204D+03
  Exact polarizability:   0.000   0.000   0.000   0.000   0.000   0.000
 Approx polarizability: 333.559  19.863 329.495 -17.400  12.902 291.967
 No NMR shielding tensors so no spin-rotation constants.
 Leave Link  601 at Sat Aug 20 11:18:00 2022, MaxMem=  1610612736 cpu:              63.0 elap:               3.8
 (Enter /home/p20180441/g16/l9999.exe)

 This type of calculation cannot be archived.


 The theorems and results in mathematical physics are
 not theorems and results about Nature, but about our
 description of it.
                   --Gerard 't Hooft
 Job cpu time:       2 days  9 hours 37 minutes 52.8 seconds.
 Elapsed time:       0 days  2 hours 56 minutes 46.5 seconds.
 File lengths (MBytes):  RWF=    943 Int=      0 D2E=      0 Chk=     24 Scr=      1
 Normal termination of Gaussian 16 at Sat Aug 20 11:18:01 2022.
